# vtk DataFile Version 3.0
vtk output
ASCII
DATASET POLYDATA
POINTS 24578 float
-151.53 81.83 75.23
-146.76 79.98 77.9
-147.26 82.51 76.57
-151.22 79.35 76.36
-146.3 77.32 78.47
-150.76 76.75 77.01
-146.01 74.82 79.56
-150.4 74.19 77.98
-145.43 72.07 79.86
-149.95 71.56 78.66
-145.02 69.6 80.58
-149.55 69.11 79.46
-144.64 67.21 81.53
-149.14 66.64 80.2
-144.27 64.77 82.34
-148.68 64.12 80.8
-144.06 62.18 83.1
-148.26 61.63 81.51
-143.83 59.57 83.96
-148.2 59.14 82.73
-143.54 56.98 84.63
-148.02 56.58 83.6
-143.3 54.28 84.95
-147.52 53.77 83.62
-142.71 51.53 84.98
-147.03 50.98 83.68
-142.34 49.05 85.71
-146.66 48.52 84.06
-142.24 46.57 86.6
-146.26 46.05 84.34
-145.97 43.63 84.94
-141.82 44.09 87.11
-141.56 41.44 87.04
-145.67 41.21 85.5
-140.98 38.76 87.5
-145.29 38.66 85.7
-140.75 36.16 87.85
-144.89 36.1 85.85
-144.62 33.53 86.3
-140.46 33.57 88.45
-140.13 30.94 88.56
-144.22 30.94 86.41
-143.81 28.2 86.49
-139.84 28.2 88.9
-143.44 25.45 86.68
-139.6 25.51 89.44
-143.18 22.67 87.12
-139.22 22.78 89.44
-142.9 19.88 87.51
-138.79 20.04 89.71
-142.6 17.15 87.83
-138.39 17.32 89.75
-137.91 14.61 89.73
-142.25 14.42 88.03
-141.99 11.68 88.46
-137.6 11.89 89.94
-141.61 8.95 88.57
-137.22 9.16 90.05
-141.13 6.27 88.48
-136.86 6.45 90.3
-140.68 3.58 88.47
-136.37 3.76 90.16
-140.25 0.89 88.51
-135.88 1.07 90.03
-139.71 -1.79 88.26
-135.64 -1.76 90.02
-135.64 -4.55 89.75
-140 -4.44 88.09
-135.69 -7.09 89
-140.34 -7.12 88.03
-135.79 -9.62 88.23
-140.37 -9.69 87.25
-135.84 -12.19 87.54
-140.43 -12.27 86.54
-135.99 -14.75 87
-140.5 -14.79 85.8
-136.21 -17.35 86.64
-140.62 -17.33 85.19
-136.42 -19.93 86.21
-140.85 -19.94 84.82
-136.49 -22.42 85.34
-140.79 -22.34 83.7
-136.45 -24.91 84.43
-140.78 -24.79 82.73
-136.55 -27.44 83.74
-140.84 -27.3 81.99
-136.57 -29.97 82.98
-140.97 -29.86 81.42
-136.73 -32.54 82.43
-141.02 -32.36 80.63
-136.76 -35.12 81.64
-141.09 -34.97 79.94
-141.32 -37.69 79.69
-136.83 -37.72 80.96
-141.45 -40.33 79.13
-136.9 -40.34 80.32
-137.11 -43 79.41
-141.48 -42.91 78.35
-141.57 -45.38 77.61
-137.04 -45.54 78.64
-141.59 -47.8 76.7
-137.03 -47.91 77.56
-141.86 -50.43 76.49
-137.15 -50.39 76.9
-141.9 -52.84 75.63
-137.27 -52.84 76.11
-141.91 -55.11 74.4
-137.53 -55.19 75.26
-137.48 -57.49 74.21
-141.9 -57.35 73.07
-142.03 -59.74 72.14
-137.7 -59.92 73.43
-142.25 -62.22 71.44
-137.97 -62.48 72.92
-142.57 -64.67 70.67
-138.15 -65.14 72.4
-142.87 -67.1 69.86
-138.34 -67.41 71.12
-143.16 -69.56 69.09
-138.58 -69.8 70.17
-143.42 -71.97 68.22
-138.72 -72 68.84
-143.42 -74.03 66.78
-138.71 -74.17 67.59
-143.52 -76.26 65.69
-138.9 -76.5 66.65
-143.64 -78.59 64.8
-139.03 -78.91 65.88
-143.64 -80.66 63.43
-139.36 -81.09 64.3
-142.41 80.53 78.87
-142.88 83.09 77.59
-141.83 77.87 79.86
-141.49 75.33 80.8
-140.97 72.61 81.19
-140.47 70.13 81.77
-140.01 67.69 82.47
-139.94 65.21 83.59
-139.84 62.72 84.64
-139.44 60.04 85.13
-139.12 57.42 85.86
-138.88 54.8 86.42
-138.56 52.14 86.78
-138.19 49.56 87.25
-137.83 46.99 87.76
-137.58 44.31 88.01
-137.31 41.63 88.23
-137.03 38.95 89.21
-136.57 36.22 89.77
-136.22 33.57 90.06
-135.88 30.91 90.36
-135.74 28.24 91.1
-135.47 25.56 91.56
-134.94 22.88 91.41
-134.47 20.19 91.43
-134.08 17.49 91.57
-133.61 14.8 91.52
-133.09 12.1 91.2
-132.71 9.37 91.23
-132.3 6.67 91.32
-131.94 3.96 91.53
-131.76 1.11 91.67
-131.5 -1.71 91.62
-131.31 -4.41 90.89
-131.1 -7.09 90.13
-131.35 -9.7 89.79
-131.55 -12.29 89.33
-131.63 -14.81 88.62
-131.74 -17.34 87.96
-131.85 -19.85 87.19
-132.06 -22.42 86.66
-132.19 -25.02 86.17
-132.25 -27.57 85.48
-132.26 -30.09 84.65
-132.44 -32.72 84.26
-132.56 -35.36 83.72
-132.63 -37.97 83.04
-132.75 -40.58 81.94
-132.83 -43.16 80.72
-132.77 -45.71 79.94
-132.75 -48.3 79.25
-132.77 -50.64 78.12
-132.8 -52.99 77
-132.95 -55.32 76.2
-133.13 -57.69 75.53
-133.33 -60.11 74.69
-133.5 -62.48 73.72
-133.64 -65.09 73
-133.72 -67.59 72.04
-133.86 -69.81 70.74
-134.01 -72.03 69.43
-134.18 -74.44 68.63
-134.35 -76.86 67.84
-134.77 -79.33 66.76
-135.07 -81.54 65.2
-138.04 81.11 79.93
-138.51 83.66 78.64
-137.48 78.45 80.95
-136.81 75.7 81.58
-136.53 73.2 82.68
-136.2 70.85 83.66
-136.01 68.35 84.53
-135.78 65.76 85.17
-135.49 63.19 85.82
-135.19 60.56 86.38
-134.98 57.99 87.45
-134.76 55.37 88.25
-134.53 52.77 88.88
-134 50.11 89.1
-133.65 47.3 89.03
-133.3 44.56 89.42
-133.29 41.92 90.17
-132.89 39.2 91
-132.5 36.43 91.58
-132.05 33.68 92.21
-131.7 30.98 92.36
-131.44 28.31 92.66
-131.04 25.67 93.02
-130.62 23.02 93.01
-130.15 20.36 93.11
-129.82 17.66 93.35
-129.27 14.97 93.05
-128.74 12.27 92.73
-128.4 9.55 92.87
-127.96 6.85 92.86
-127.84 4 93.22
-127.59 1.17 93.17
-127.27 -1.64 92.97
-127.25 -4.36 92.57
-127.15 -7.08 92.07
-127.17 -9.83 91.83
-127.29 -12.38 91.16
-127.29 -14.86 90.23
-127.44 -17.42 89.6
-127.57 -19.97 88.96
-127.76 -22.53 88.35
-127.82 -25.1 87.72
-127.85 -27.64 86.95
-127.95 -30.27 86.46
-128.2 -32.95 86.24
-128.25 -35.54 85.49
-128.5 -38.26 84.8
-128.59 -40.83 83.55
-128.62 -43.36 82.3
-128.5 -45.86 81.36
-128.57 -48.51 80.64
-128.51 -50.96 79.6
-128.63 -53.39 78.68
-128.82 -55.89 78.24
-129.15 -58.39 77.85
-129.06 -60.46 76.29
-128.99 -62.4 74.44
-128.98 -64.79 73.19
-129.01 -67.15 71.96
-128.97 -69.58 70.84
-129.28 -72.05 69.98
-129.48 -74.55 69.36
-130.01 -77.21 68.65
-130.42 -79.71 67.63
-130.79 -82.03 66.21
-133.82 81.84 81.46
-134.36 84.47 80.38
-133.19 79.09 82.22
-132.49 76.28 82.7
-131.95 73.65 83.71
-131.93 71.29 85
-131.87 68.9 86.17
-131.5 66.27 86.57
-131.13 63.64 86.94
-130.87 61.02 87.58
-130.68 58.45 88.47
-130.46 55.86 89.34
-130.18 53.24 90.02
-129.88 50.44 90.31
-129.64 47.69 90.79
-129.42 44.94 91.36
-129.23 42.2 92.03
-128.71 39.37 92.41
-128.45 36.65 93.48
-128.03 33.86 94.03
-127.47 31.03 94.24
-127.19 28.41 94.71
-126.88 25.78 95.12
-126.32 23.16 94.88
-125.8 20.53 94.74
-125.36 17.84 94.64
-124.86 15.16 94.43
-124.49 12.44 94.52
-124.2 9.71 94.8
-123.95 6.88 94.78
-123.68 4.05 94.73
-123.4 1.23 94.62
-123.18 -1.6 94.69
-123.37 -4.41 94.84
-123.31 -7.12 94.32
-123.16 -9.79 93.63
-122.95 -12.42 92.76
-123.09 -14.99 92.12
-123.27 -17.57 91.56
-123.4 -20.13 90.9
-123.5 -22.66 90.14
-123.53 -25.22 89.42
-123.57 -27.78 88.7
-123.68 -30.42 88.22
-123.74 -33.02 87.62
-123.94 -35.69 86.77
-124.14 -38.36 85.91
-124.27 -40.96 84.88
-124.51 -43.67 84.17
-124.44 -46.18 83.04
-124.36 -48.68 81.9
-124.32 -51.14 80.87
-124.34 -53.66 80.01
-124.65 -56.22 79.72
-124.85 -58.64 79.12
-124.76 -60.62 77.46
-124.57 -62.46 75.52
-124.49 -64.69 73.94
-124.51 -67.1 72.74
-124.57 -69.65 71.8
-124.65 -72.26 70.99
-125.14 -74.86 70.13
-125.57 -77.36 69.04
-126.01 -79.84 67.96
-126.39 -82.16 66.58
-129.58 82.52 82.46
-130.23 85.32 82
-128.9 79.77 83.09
-128.4 77.11 83.84
-127.98 74.41 84.96
-127.56 71.77 85.9
-127.33 69.24 86.57
-127.15 66.76 87.43
-126.86 64.14 88.01
-126.52 61.49 88.81
-126.36 58.96 89.84
-126.14 56.38 90.8
-125.97 53.53 91.15
-125.51 50.64 91.5
-125.42 47.93 92.31
-125.22 45.19 93.14
-125.05 42.45 93.81
-124.64 39.66 94.38
-124.31 36.88 95.2
-123.77 34.05 95.42
-123.26 31.23 95.69
-122.78 28.52 96.11
-122.44 25.87 96.38
-121.98 23.27 96.26
-121.42 20.65 96.06
-121.04 17.96 96.08
-120.68 15.29 96.36
-120.38 12.57 96.56
-120.17 9.75 96.72
-119.91 6.93 96.66
-119.55 4.12 96.37
-119.27 1.3 96.28
-119.07 -1.54 96.32
-119.25 -4.36 96.51
-119.22 -7.1 96.08
-119.04 -9.77 95.31
-119 -12.5 94.8
-118.91 -15.21 94.19
-119.08 -17.79 93.59
-119.2 -20.38 92.98
-119.3 -22.91 92.18
-119.31 -25.47 91.43
-119.31 -28 90.63
-119.33 -30.55 89.87
-119.45 -33.15 88.84
-119.6 -35.8 87.91
-119.83 -38.5 87.17
-120.05 -41.2 86.43
-120.26 -43.87 85.57
-120.32 -46.42 84.63
-120.24 -48.94 83.59
-120.24 -51.46 82.7
-120.29 -53.99 81.83
-120.1 -56.26 80.6
-120.22 -58.48 79.45
-120.33 -60.66 78.2
-120.24 -62.81 76.84
-120.26 -65.2 75.6
-120.18 -67.48 74.2
-120.23 -70.02 73.25
-120.52 -72.67 72.16
-120.81 -75.19 70.96
-121.18 -77.58 69.65
-121.52 -79.9 68.24
-121.92 -82.27 66.97
-125.25 83.17 83.41
-125.88 85.88 82.84
-124.6 80.45 83.94
-124.22 77.72 84.75
-123.94 75.09 85.93
-123.46 72.43 86.81
-122.93 69.71 87.46
-122.73 67.14 88.15
-122.59 64.64 89.06
-122.25 62 89.9
-121.95 59.4 90.9
-121.96 56.7 91.92
-121.73 53.8 92.2
-121.47 50.99 93.04
-121.27 48.22 94.07
-121.07 45.45 94.8
-120.88 42.69 95.58
-120.53 39.9 96.26
-120.06 37.06 96.59
-119.52 34.23 96.77
-119.19 31.45 97.53
-118.64 28.71 97.7
-118.07 25.97 97.81
-117.65 23.36 97.86
-117.2 20.75 97.82
-116.76 18.09 97.81
-116.45 15.42 98.16
-116.25 12.62 98.27
-115.94 9.82 98.09
-115.72 7.01 98.16
-115.43 4.19 98.08
-115.24 1.34 98.13
-115.02 -1.5 98.11
-115.03 -4.27 97.86
-115.05 -7.04 97.62
-115.01 -9.78 97.12
-114.91 -12.5 96.46
-114.83 -15.21 95.87
-114.79 -17.94 95.36
-114.95 -20.55 94.79
-115.09 -23.14 94.17
-115.09 -25.69 93.41
-115.09 -28.25 92.66
-115.19 -30.82 91.55
-115.34 -33.43 90.58
-115.56 -36.16 89.86
-115.65 -38.76 88.81
-115.73 -41.32 87.6
-115.89 -43.96 86.62
-115.94 -46.5 85.75
-115.97 -49.02 84.82
-116.06 -51.62 84.1
-116.16 -54.22 83.41
-116 -56.46 81.98
-115.78 -58.59 80.34
-115.73 -60.7 78.9
-115.82 -63.01 77.89
-115.91 -65.56 77.02
-115.85 -67.86 75.66
-116.07 -70.39 74.35
-116.45 -73.24 73.66
-116.73 -75.78 72.45
-116.87 -78.01 70.66
-117.13 -80.1 68.85
-117.46 -82.37 67.36
-120.93 83.58 83.84
-121.35 86.18 83.25
-120.43 80.92 84.76
-120.24 78.29 85.68
-119.85 75.73 86.84
-119.39 73.08 87.68
-118.97 70.39 88.56
-118.52 67.71 89.38
-118.27 65.1 89.93
-117.89 62.43 90.71
-117.77 59.68 91.68
-117.62 56.89 92.64
-117.53 54.11 93.38
-117.25 51.28 94.27
-116.99 48.44 95.07
-116.61 45.56 95.63
-116.37 42.76 96.18
-116.01 39.98 96.85
-115.62 37.17 97.41
-115.23 34.39 98.02
-114.97 31.62 98.96
-114.53 28.91 99.33
-113.9 26.15 99.26
-113.4 23.47 99.53
-113.04 20.85 99.72
-112.61 18.2 99.71
-112.34 15.45 99.77
-112.11 12.66 99.75
-111.7 9.9 99.43
-111.54 7.08 99.65
-111.31 4.26 99.65
-111.1 1.42 99.6
-110.91 -1.42 99.76
-110.84 -4.17 99.3
-110.76 -6.92 98.71
-110.8 -9.71 98.47
-110.76 -12.46 97.96
-110.67 -15.19 97.39
-110.65 -17.93 96.92
-110.56 -20.62 96.27
-110.66 -23.19 95.59
[...]
CELL_DATA 49152
SCALARS Temperature float 1
LOOKUP_TABLE default
316.318
309.746
253.09
264.326
307.883
295.433
197.086
269.927
278.738
287.498
301.536
279.276
287.556
259.18
283.245
272.708
290.121
321.365
274.123
295.801
229.029
76.8789
91.8979
84.5294
279.166
231.683
298.99
196.346
261.57
241.183
81.2866
263.005
228.451
183.836
232.778
151.823
244.171
260.323
145.029
105.594
61.8574
218.588
168.652
248.879
233.399
57.9714
227.949
188.551
216.322
40.7576
55.7795
45.1313
241.397
197.696
149.157
149.157
44.5254
199.326
28.5041
30.6635
15.4472
25.4812
35.7294
30.0556
33.5939
28.8203
1.43988
3.62351
3.51189
3.18702
3.21088
2.95587
3.0817
2.16186
2.91384
1.71478
2.34587
2.44703
0.479095
0.267972
0.215416
0.219558
0.169169
0.189066
0.194365
0.134792
0.123298
0.234489
0.228223
0.2128
0.677626
0.103326
0.705863
0.0560113
0.14118
0.517078
0.439036
0.111617
0.159479
0.117514
0.101788
0.0447345
0.0358993
0.0357025
0.0240769
0.0252175
0.0188735
0.01227
0.0133612
0.0160877
0.0186311
0.0238231
0.0171787
0.0234371
0.0116015
0.00206123
0.00333484
0.00536171
0.00693255
0.00501898
0.00258386
0.00343324
0.00487521
0.00518928
0.00540199
0.00578203
7.38216e-06
8.34834e-06
316.478
319.728
294.408
254.868
295.96
309.266
227.163
203.309
258.953
279.02
276.762
303.115
316.774
288.079
310.744
282.961
244.41
292.19
278.619
274.105
263.393
227.103
229.964
97.4375
241.87
276.807
251.089
300.768
215.033
256.964
208.793
94.068
236.662
294.735
232.413
245.133
262.139
212.934
156.931
214.135
224.93
279.55
253.989
242.731
45.1983
30.3901
21.3028
20.7955
6.04007
29.5981
32.2665
34.6086
16.9819
9.9078
6.97391
9.77287
10.0107
5.08253
7.37883
4.46044
10.7734
3.67569
19.6046
17.3354
3.31604
4.27319
4.47633
4.00677
4.47567
2.1174
3.19571
0.86702
0.748449
1.71895
0.732015
2.5163
0.729258
2.15468
1.05691
0.58535
0.942339
0.215523
0.168197
0.169989
0.203429
0.186518
0.117356
0.52546
0.537467
0.231545
0.215793
0.221244
0.223158
0.179865
0.183718
0.146128
0.129204
0.114061
0.124859
0.132382
0.121335
0.0667613
0.0568881
0.0274402
0.0264067
0.0261434
0.021468
0.0206299
0.0192407
0.0168339
0.0232524
0.0119481
0.0255053
0.0194067
0.00495005
0.00502488
0.00586879
0.00517687
0.00506563
0.00455372
0.00466347
0.00515578
0.00499727
0.00539409
0.0055599
0.00502173
6.85241e-06
6.38189e-06
317.203
316.213
296.096
293.152
256.784
300.107
312.489
223.462
302.962
250.797
292.802
264.822
268.486
314.817
270.217
310.972
261.496
247.186
307.508
275.065
284.813
259.551
267.902
223.312
152.04
241.289
96.099
253.254
233.524
213.696
288.008
202.67
293.111
277.788
246.209
251.422
209.771
251.213
209.895
165.81
280.516
222.001
246.904
225.81
24.4164
27.6224
8.6512
9.52463
5.74475
6.39003
26.0496
13.92
12.9654
3.58692
3.2602
4.10325
3.62524
3.06717
4.13013
4.76902
3.80459
2.38869
2.14064
3.93256
5.38006
21.6377
4.47941
1.75932
4.14192
3.7393
0.823436
2.31749
0.553826
0.466088
0.460737
0.500085
0.44923
0.429923
0.482439
0.430502
0.349952
0.761054
0.18962
0.531086
0.719796
0.252166
0.698654
0.83454
0.207547
0.240517
0.234789
0.187119
0.183655
0.168481
0.153606
0.152015
0.137012
0.110421
0.103372
0.0976899
0.0848889
0.0866742
0.0803695
0.0622288
0.066264
0.0854091
0.0713796
0.0904203
0.00747469
0.0136157
0.00524284
0.00278399
0.00272608
0.00244808
0.00388325
0.00323099
0.00361551
0.002634
0.00412906
0.00443337
0.00550306
0.00468471
0.00569271
0.00625351
0.00529993
0.00532162
4.18226e-06
3.06906e-06
293.407
312.549
264.283
293.74
231.303
256.241
296.264
311.395
329.12
303.939
320.578
293.845
232.057
271.917
230.214
273.167
271.956
261.497
296.167
308.641
294.062
287.455
275.188
271.898
218.493
184.18
250.97
91.7988
259.454
226.421
286.914
270.85
276.714
219.802
256.298
299.478
253.275
245.332
166.621
151.494
219.912
245.368
217.735
233.447
30.2788
16.9685
11.7021
9.13979
13.819
14.3845
15.7236
14.2897
5.83853
11.9951
4.01693
10.7565
3.08101
9.39791
6.36107
3.06795
2.72637
3.01688
3.55811
15.4377
12.9155
23.1654
21.0493
18.6539
2.22786
3.33442
0.500072
0.25024
0.245908
0.5114
0.535115
0.571606
0.519204
0.527892
0.44041
0.450539
0.318251
0.341846
0.227561
0.223839
0.384357
0.376046
0.867185
0.578484
0.0370403
0.037126
0.0321958
0.0489863
0.0212253
0.0969734
0.0267696
0.15277
0.139398
0.130603
0.116269
0.0754216
0.0592945
0.0605427
0.0600958
0.0643759
0.0791492
0.0898661
0.0878391
0.062855
0.00394762
0.00380584
0.00360112
0.00330339
0.00147516
0.00137596
0.00138051
0.00134238
0.00139868
0.00129085
0.00422627
0.00428609
0.00450928
0.00431737
0.00550837
0.00481827
0.00505305
0.00469685
0.00329172
0.00303825
222.346
301.364
256.482
273.11
277.026
232.526
302.751
293.266
291.606
329.354
279.386
322.206
298.565
240.142
266.017
233.494
284.095
271.424
307.289
295.378
299.343
292.134
233.884
275.181
220.672
218.663
289.408
249.754
261.26
284.998
271.534
272.307
213.268
247.312
298.84
278.894
246.954
177.088
195.702
168.454
249.282
231.269
239.786
213.144
26.5775
23.131
20.0879
19.2221
14.0568
15.5607
7.04751
10.4569
13.8309
17.8105
17.1616
17.809
20.3077
20.2101
19.8919
6.99943
5.38733
14.1328
12.1947
11.1694
4.50144
9.49727
11.6789
13.9845
11.3387
8.37538
2.06672
0.557436
0.531426
0.540169
0.51783
0.527646
0.885208
0.591273
0.444531
0.442989
0.402464
0.399967
0.327523
0.3381
0.283469
0.351826
0.057204
0.0482944
0.0274958
0.0368939
0.0311747
0.0291359
0.0292161
0.115179
0.0928867
0.0361102
0.0657465
0.107546
0.0989831
0.104256
0.0979282
0.0971329
0.0925236
0.0908276
0.099142
0.00734166
0.0119229
0.00832647
0.00680212
0.00239609
0.00131938
0.00307445
0.00226414
0.00210827
0.00176613
0.00135319
0.00128853
0.0040726
0.00423401
0.00387775
0.00427057
0.00320199
0.00355304
0.00198281
0.00343806
0.000371362
0.00109372
0.000309144
254.529
235.589
247.02
259.108
283.531
276.679
312.571
304.208
287.027
294.046
264.399
278.831
280.485
297.949
301.748
264.956
287.752
283.983
301.162
307.915
306.101
300.49
219.159
234.526
286.031
215.062
288.375
298.471
284.878
276.415
272.727
280.798
249.68
263.596
277.57
212.517
160.834
178.496
197.227
272.614
222.79
140.528
208.847
19.0341
18.2286
18.5936
17.1008
17.889
8.8505
9.00424
10.1014
11.3187
11.5146
177.354
3.45207
14.1698
13.0444
9.93747
1.10731
16.5986
14.2397
15.3797
15.6276
14.3965
6.43768
5.72324
0.0758635
0
0.0105018
10.929
7.82705
1.97092
0.855686
0.259732
1.20479
1.09969
1.06416
0.797834
0.704055
0.37002
0.345103
0.34642
0.321655
0.316615
0.189285
0.163695
0.104992
0.0543509
0.0672978
0.0585465
0.0883105
0.0197633
0.00777575
0.0150915
0.016595
0.0190466
0.0165964
0.0142656
0.0139945
0.0183487
0.0145926
0.0562549
0.0606816
0.0813732
0.0443553
0.00703745
0.00197848
0.0015504
0.00147473
0.00487163
0.00255203
0.00153964
0.0039888
0.00516217
0.0018674
0.00183916
0.00428691
0.00318815
0.00401182
0.00484353
0.00319081
0.00310828
0.00110219
0.000820147
0.000660384
0.000272088
0.000296484
0.000285896
268.564
260.689
295.367
249.162
297.961
282.657
310.901
312.357
285.175
288.04
288.604
261.628
281.043
279.031
262.439
301.422
282.616
289.478
300.031
303.081
298.053
306.195
282.442
219.289
288.283
285.179
300.92
282.381
255.393
279.853
260.538
285.094
273.363
272.624
259.872
221.658
182.423
260.822
277.461
292.777
150.676
220.091
24.3793
31.5499
11.772
16.4818
17.7843
15.5344
17.0603
12.5945
13.3072
138.162
177.417
14.4299
19.7874
17.947
14.3166
4.8792
1.19361
1.56766
5.9891
1.47264
1.65709
6.0429
0.00986409
0.011265
0.135998
0.067809
0.654336
0.0643815
0.0770811
0.110799
0.113486
0.116796
0.136652
0.82146
0.113428
0.121604
0.106944
0.103241
0.053218
0.0549844
0.0512593
0.0273443
0.0433408
0.124484
0.0994002
0.098038
0.158572
0.176734
0.113764
0.0916945
0.0985299
0.0180552
0.020029
0.0173411
0.0164465
0.0155336
0.0111173
0.0126355
0.0155502
0.0146392
0.0152814
0.0138335
0.00695209
0.0015395
0.00185552
0.00212803
0.00223708
0.00214824
0.00235419
0.0022276
0.0047305
0.00281888
0.00131871
0.0013641
0.00135446
0.00143353
0.00460071
0.0041832
0.00255334
0.00399511
0.000670678
0.000540755
0.000472132
0.00042614
0.00029693
0.00027382
290.855
266.06
291.76
293.594
298.351
298.598
307.913
313.738
297.952
287.905
309.952
288.667
296.238
281.968
248.034
263.542
295.697
280.357
282.103
299.807
288.367
297.98
286.007
282.395
291.427
289.638
264.512
283.521
241.498
258.167
270.649
260.905
271.78
293.835
256.615
270.299
261.932
291.261
292.659
249.503
229.148
232.567
52.6161
51.8148
44.1661
208.544
191.374
237.155
42.614
208.472
137.604
104.158
19.204
15.6193
22.366
19.0881
5.6826
4.24387
2.37546
1.5841
1.19098
1.27889
2.23914
1.06954
0.88044
0.57716
0.521688
0.138703
0.374584
0.52779
0.286317
0.0570738
0.296194
0.0681704
0.324947
0.936496
0.750451
0.717268
0.0543554
0.0260664
0.0316375
0.0279267
0.0269151
0.0281018
0.0232908
0.0196754
0.0134118
0.014796
0.0185715
0.0219676
0.0153156
0.0280594
0.0216912
0.0489889
0.0131487
0.0149262
0.0125297
0.0135793
0.0372998
0.0351646
0.0109866
0.0139402
0.0130342
0.010182
0.00945078
0.00202759
0.00164846
0.00246377
0.00218072
0.00242955
0.00233132
0.00205867
0.00198804
0.00240174
0.00147516
0.00150965
0.00126016
0.00085201
0.00114587
0.000712324
0.00317699
0.0006013
0.000549435
0.000517729
0.000423776
0.000383125
0.000349748
0.000462069
322.408
285.944
289.291
287.667
269.916
295.912
306.101
305.689
270.134
296.272
260.631
312.151
292.27
301.71
326.165
248.135
308.741
294.751
263.171
282.347
271.276
288.612
282.218
285.976
294.418
291.331
280.991
263.069
287.402
234.324
275.588
264.519
289.723
282.77
266.517
268.95
289.949
284.813
243.773
224.493
227.231
263.734
53.4028
213.369
190.035
64.5902
33.8575
42.4533
209.542
220.634
111.37
210.977
25.5068
26.3968
27.2901
27.4623
5.08848
23.861
2.85682
5.73956
2.03971
0.433089
0.288883
0.203008
0.195127
0.202317
0.102882
0.0996836
0.0988006
0.0841422
0.0559195
0.048575
0.0717285
0.0645321
0.0695682
0.302227
0.200237
0.129881
0.105168
0.182381
0.120001
0.0727705
0.0791414
0.0201336
0.019066
0.0218141
0.0176308
0.0113128
0.0135279
0.0177822
0.0414792
0.0447338
0.0332142
0.0526324
0.0423738
0.0127898
0.0274234
0.0287165
0.0283216
0.0340445
0.033316
0.0100488
0.00196203
0.00412037
0.00105852
0.000393675
0.000419247
0.00121646
0.00154289
0.00137179
0.00156909
0.000778465
0.000637693
0.00121297
0.00109937
0.000886896
0.000766186
0.000854156
0.000618461
0.000575284
0.000534855
0.000586398
0.000480775
0.000542097
0.000439307
0.000473221
0.000470555
0.000397575
305.856
324.695
300.015
295.846
295.27
275.028
292.515
309.488
311.881
272.354
291.33
255.646
292.126
282.758
309.034
324.742
308.689
301.968
265.59
316.562
267.724
308.893
274.387
250.105
288.54
215.21
277.256
281.684
285.631
283.758
268.341
275.788
283.571
283.651
270.135
276.894
284.903
252.077
227.59
260.796
266.245
293.751
216.901
186.523
53.9713
50.9848
38.1368
40.4586
33.8002
32.9675
210.817
98.8962
28.0828
32.0395
33.2169
30.2984
35.2457
38.5995
29.446
234.029
9.70534
0.164531
0.174784
0.142193
0.135424
0.146436
0.0898483
0.0815856
0.0622372
0.0569636
0.0954318
0.0669301
0.0984629
0.0918351
0.0107518
0.031802
0.00141756
0.00446434
0.00350202
0.00242631
0.00284933
0.0901056
0.0938365
0.106367
0.080862
0.0294747
0.0165741
0.0147843
0.0553291
0.0462593
0.0616051
0.0745599
0.0887613
0.0672742
0.0634747
0.0614743
0.0632167
0.0591927
0.0623108
0.0623431
0.060449
0.0490569
0.0349524
0.00280741
0.00216126
0.00212919
0.0019315
0.00159063
0.00162224
0.00118023
0.0012229
0.00188996
0.00176368
0.00163707
0.00152504
0.00137181
0.00122001
0.0012312
0.00110328
0.000946921
0.000462485
0.000761116
0.000698111
0.00252779
0.000667154
0.000472695
0.000456816
0.000193717
302.35
310.359
314.719
301.323
307.367
295.733
328.191
290.891
317.234
307.797
306.277
287.82
291.943
319.749
306.314
299.142
297.087
305.33
315.667
324.369
310.235
301.446
251.185
263.658
215.092
206.564
220.91
281.408
263.364
284.209
281.918
268.222
282.96
248.773
279.028
276.33
252.074
255.528
262.562
258.882
297.22
261.731
203.731
209.23
194.623
67.3161
63.4564
246.941
235.419
192.852
80.221
26.1405
27.8931
27.3296
21.2027
19.7315
19.0949
17.1152
22.9635
22.3526
0.986382
0.613453
0.505423
0.408511
0.351788
0.151823
0.183566
0.0971349
0.103185
0.10644
0.1063
0.108255
0.0486821
0.0765031
0.0222972
0.0192694
0.00271496
0.00102791
0.000852372
0.000581902
0.00271479
0.00279502
0.00277637
0.0959703
0.0878908
0.0758301
0.0729311
0.0538752
0.0856105
0.0733878
0.0820814
0.0824828
0.0814518
0.0848792
0.0809352
0.0843612
0.0806753
0.051289
0.0502827
0.0469327
0.0453019
0.0431187
0.0408553
0.0227576
0.00186128
0.00167516
0.00157951
0.00167031
0.00166282
0.00166352
0.00157717
0.00161356
0.00154052
0.00157145
0.00147367
0.00148915
0.00137369
0.00131574
0.00118045
0.00111259
0.00121726
0.000477494
0.00174239
0.00196711
0.000420279
0.000553166
0.000474753
0.000339852
299.706
331.276
303.81
303.403
291.744
300.782
324.122
326.747
291.346
318.445
312.408
307.741
325.95
343.855
300.627
311.26
307.512
324.399
324.77
316.193
302.351
260.6
270.291
280.156
228.556
308.405
221.502
301.71
258.142
208.355
121.87
280.757
241.896
212.116
272.549
223.447
254.65
251.8
257.767
246.885
258.215
209.738
208.645
220.3
193.119
239.774
250.356
238.556
198.1
50.2545
47.6283
36.0647
34.1758
30.6395
25.8564
25.9907
23.4434
24.0933
23.6754
23.96
6.46629
13.7894
0.63119
0.353817
0.600976
0.3046
0.176764
0.178256
0.154811
0.0709205
0.0372948
0.0120586
0.00226273
0.00285794
0.00328793
0.00659837
0.00275086
0.00230072
0.00190821
0.000700527
0.00214979
0.002643
0.00256216
0.00259166
0.00215417
0.0434673
0.00589119
0.0720923
0.0713009
0.0789271
0.0772178
0.0661144
0.0664385
0.0495364
0.0420002
0.012888
0.0222152
0.025125
0.0218425
0.00283473
0.00249454
0.0316744
0.0278793
0.018827
0.00214755
0.00211417
0.00113588
0.00133613
0.00120407
0.00130171
0.00121775
0.00129739
0.0012468
0.0013442
0.00126892
0.00130557
0.00120172
0.00107833
0.000945156
0.000677217
0.000430593
0.000260508
0.000646828
0.000191795
0.000130644
4.96196e-05
6.95923e-05
0.000315151
334.79
332.383
308.394
329.178
292.463
322.118
322.141
307.251
289.089
290.528
308.846
308.646
344.069
327.834
315.005
315.274
330.47
339.386
320.063
293.215
266.95
291.228
285.024
330.974
310.715
345.183
302.861
324.787
116.309
206.671
115.065
81.1099
72.5828
65.3714
53.7285
52.8998
54.0143
46.7015
245.031
33.0205
206.468
43.2144
218.59
55.7859
240.9
177.279
240.798
165.189
77.6821
216.743
60.8549
212.056
43.4979
182.162
28.2914
26.3671
18.6953
135.744
95.9608
5.43928
10.1436
7.44889
1.3787
4.95897
0.967954
2.4927
0.0592711
0.0205521
0.00606851
0.00772407
0.00314839
0.0162557
0.000653687
0.000551791
0.00054382
0.0021532
0.000693288
0.00351428
0.00350399
0.00236156
0.00305556
0.00239239
0.00258027
0.00244315
0.00180914
0.00158893
0.00180575
0.00284334
0.0166845
0.0209429
0.0338807
0.0194002
0.0225275
0.00180859
4.10063e-06
5.17575e-06
7.50128e-06
0.0275746
0.0246148
0.0291108
0.0271851
0.00474829
0.000395244
0.00150133
0.00119093
0.000489367
0.000525117
0.000640228
0.000671446
0.00129783
0.0012525
0.00103726
0.00100333
0.00108444
0.00102371
0.000978908
0.000893994
0.0009482
0.00083429
0.000719821
0.000553835
0.000349821
0.000117595
0.000160983
7.47509e-05
0.000119305
7.29286e-05
0.000189118
335.626
348.08
332.057
347.879
328.394
329.839
308.6
314.198
291.429
314.093
306.002
317.084
322.925
311.747
309.041
305.044
337.767
255.818
296.332
309.462
295.445
327.798
333.56
332.278
353.141
359.622
331.103
325.868
47.5626
32.7562
89.6356
88.7148
64.318
45.9289
31.4207
31.4106
31.9108
37.4519
29.6021
48.2318
51.7537
51.9207
60.0453
60.5791
62.4199
59.8573
69.8446
54.1711
72.4262
275.195
209.002
260.02
172.424
123.231
135.687
16.9464
13.7879
14.401
9.27558
5.67119
5.00851
2.00109
4.04505
1.49298
0.0377546
0.0360964
0.00547688
0.00219617
0.000696406
0.00440373
0.0117445
0.015274
0.0101987
0.0023544
0.00241811
0.0020915
0.000804387
0.000753405
0.00115759
0.00259176
0.00238497
0.00305825
0.00272578
0.00282521
0.0013652
0.00231895
0.00222553
0.0019793
6.13087e-05
8.17061e-05
5.89889e-05
5.23833e-05
2.57644e-05
1.73159e-05
1.87799e-05
6.80831e-05
5.86049e-06
8.51488e-06
0.00013421
9.84586e-05
0.000266717
0.00168729
0.00130848
0.00175707
0.00150293
0.000276988
0.000215815
0.00017789
0.000183989
0.000981856
0.00104477
0.000440782
0.000427073
0.000341364
0.000391835
0.000328439
0.000327434
0.000392606
0.00035207
0.000673979
0.00063513
0.000708174
0.000359931
0.000120612
2.84154e-05
2.29787e-05
2.82563e-05
2.86668e-05
349.885
359.868
350.546
340.555
334.222
329.696
321.091
333.037
322.166
350.877
321.655
337.029
311.722
312.137
304.171
273.269
267.349
245.376
304.273
308.57
326.153
274.798
333.606
304.345
360.058
345.206
325.861
334.413
191.968
73.2229
98.8015
94.5468
57.4665
61.5386
30.9742
28.7011
62.1743
49.2615
53.454
63.422
59.5069
47.655
67.0116
239.553
60.099
247.641
232.66
245.812
276.167
278.387
262.832
264.619
137.014
0
5.61973
5.93913
3.979
1.55594
0.905483
0.0937935
0.477914
0.478912
0.691748
0
0.058952
0.0510481
0.00921104
0.00391474
0.00338387
0.00395749
0.00957421
0.0148603
0.0106527
0.0163374
0.0170894
0.00848995
0.00271062
0.00119193
0.00174219
0.00227422
0.00192029
0.00230794
0.00150065
0.00248201
0.00072553
0.000763439
0.00129931
0.00189983
7.86593e-05
3.18403e-05
2.33504e-05
2.18006e-05
1.48898e-05
1.95706e-05
1.78049e-05
1.55236e-05
0
0
1.34349e-05
5.54588e-06
8.28885e-06
0.00205875
0.0020268
0.00041132
0.000534274
0.000263415
0.000103759
0.000121438
6.13856e-05
0.000134915
3.32441e-05
0.000404701
0.000375173
0.000235879
0.000272991
0.000345513
0.000327664
0.000334874
0.00030217
0.000361061
0.000351124
0.000756978
0.000621119
0.000194733
0.000173393
3.06384e-05
0.000190182
0.00026025
361.99
348.8
341.153
349.507
330.865
338.809
334.339
342.082
354.202
350.882
344.057
348.999
320.32
318.292
265.47
280.902
298.955
272.939
312.786
288.671
274.467
273.72
302.992
293.582
293.679
342.635
294.729
330.602
261.421
194.144
207.37
117.09
94.1404
284.188
237.38
254.216
77.2089
78.9762
67.8514
240.927
235.088
265.71
238.922
250.214
248.038
243.726
246.973
238.015
278.994
240.257
266.439
243.704
43.2613
201.228
27.7301
22.2041
19.0376
26.4267
21.9614
10.1615
6.6787
5.08898
0.123272
0.111302
0.489513
0.0568221
0.00946985
0.0948883
1.41976e-07
2.92277e-05
4.60548e-05
4.87206e-05
6.43186e-05
0.000426206
5.51784e-06
0.0180749
0.0115659
0.00061706
0.000534801
0.000295949
0.000996095
0.00158062
0.00102591
0.00120017
0.00110407
0.000657748
0.00150527
0.000833842
0.000296094
0.000196884
9.79908e-05
2.09026e-05
1.72667e-05
1.43612e-05
5.71828e-06
1.58003e-05
9.23735e-06
6.15835e-06
3.98093e-07
9.2455e-07
2.25386e-07
1.02937e-06
1.32763e-05
1.66084e-05
1.72324e-05
0.000537316
0.000196235
9.96849e-05
1.52049e-05
4.67497e-05
3.93463e-06
1.2667e-05
1.12709e-05
0.000352463
0.000340313
0.000358347
0.000364897
0.000232016
0.000175295
3.68972e-05
3.35993e-05
3.5423e-05
1.15761e-05
0.000179237
0.000133291
2.39796e-05
1.63478e-05
3.14577e-05
348.76
332.864
349.638
354.898
339.024
338.087
310.995
342.471
333.793
349.81
348.205
353.706
320.25
347.842
329.729
267.017
313.419
298.621
296.091
288.022
267.711
273.772
263.597
292.892
250.432
290.908
260.177
294.952
278.317
261.887
279.193
198.134
265.67
284.996
263.405
256.341
283.926
84.4706
242.143
276.817
266.23
270.506
251.218
242.952
244.893
243.886
238.821
246.05
239.473
243.577
242.554
230.926
200.361
35.6718
33.7493
35.976
33.192
25.6985
24.4774
184.335
8.53732
3.71647
0.60873
1.22941
0.293936
1.51875
0.00146528
0.00763536
0.00574111
3.40057e-05
3.59118e-05
1.42997e-05
1.89759e-05
1.36401e-05
4.51752e-05
3.41917e-05
0
0.000162739
0.000262398
0.000223739
0.000121819
0.000130249
0.000103654
0.000214669
0.00021698
0.000738627
0.00110733
0.00134161
1.25983e-58
4.50571e-59
1.35142e-06
1.40818e-06
3.71772e-07
5.54437e-06
6.29116e-07
9.52742e-07
6.71805e-07
2.54216e-07
7.48806e-08
7.448e-08
9.51292e-07
8.05197e-07
1.16598e-06
1.27971e-06
1.31833e-06
0.000181536
1.416e-05
8.31116e-06
1.68163e-05
1.64144e-05
1.8103e-05
1.47844e-05
1.7176e-05
9.49964e-06
0.000227199
0.000211639
0.000243674
0.000308087
0.000257475
6.42565e-05
2.19388e-05
3.41388e-05
2.88771e-05
0.000134719
0.000129762
0.000127782
3.79796e-06
6.0376e-06
323.864
333.352
355.11
332.861
337.9
347.949
313.416
310.711