# vtk DataFile Version 3.0
vtk output
ASCII
DATASET POLYDATA
POINTS 24578 float
-151.53 81.83 75.23
-146.76 79.98 77.9
-147.26 82.51 76.57
-151.22 79.35 76.36
-146.3 77.32 78.47
-150.76 76.75 77.01
-146.01 74.82 79.56
-150.4 74.19 77.98
-145.43 72.07 79.86
-149.95 71.56 78.66
-145.02 69.6 80.58
-149.55 69.11 79.46
-144.64 67.21 81.53
-149.14 66.64 80.2
-144.27 64.77 82.34
-148.68 64.12 80.8
-144.06 62.18 83.1
-148.26 61.63 81.51
-143.83 59.57 83.96
-148.2 59.14 82.73
-143.54 56.98 84.63
-148.02 56.58 83.6
-143.3 54.28 84.95
-147.52 53.77 83.62
-142.71 51.53 84.98
-147.03 50.98 83.68
-142.34 49.05 85.71
-146.66 48.52 84.06
-142.24 46.57 86.6
-146.26 46.05 84.34
-145.97 43.63 84.94
-141.82 44.09 87.11
-141.56 41.44 87.04
-145.67 41.21 85.5
-140.98 38.76 87.5
-145.29 38.66 85.7
-140.75 36.16 87.85
-144.89 36.1 85.85
-144.62 33.53 86.3
-140.46 33.57 88.45
-140.13 30.94 88.56
-144.22 30.94 86.41
-143.81 28.2 86.49
-139.84 28.2 88.9
-143.44 25.45 86.68
-139.6 25.51 89.44
-143.18 22.67 87.12
-139.22 22.78 89.44
-142.9 19.88 87.51
-138.79 20.04 89.71
-142.6 17.15 87.83
-138.39 17.32 89.75
-137.91 14.61 89.73
-142.25 14.42 88.03
-141.99 11.68 88.46
-137.6 11.89 89.94
-141.61 8.95 88.57
-137.22 9.16 90.05
-141.13 6.27 88.48
-136.86 6.45 90.3
-140.68 3.58 88.47
-136.37 3.76 90.16
-140.25 0.89 88.51
-135.88 1.07 90.03
-139.71 -1.79 88.26
-135.64 -1.76 90.02
-135.64 -4.55 89.75
-140 -4.44 88.09
-135.69 -7.09 89
-140.34 -7.12 88.03
-135.79 -9.62 88.23
-140.37 -9.69 87.25
-135.84 -12.19 87.54
-140.43 -12.27 86.54
-135.99 -14.75 87
-140.5 -14.79 85.8
-136.21 -17.35 86.64
-140.62 -17.33 85.19
-136.42 -19.93 86.21
-140.85 -19.94 84.82
-136.49 -22.42 85.34
-140.79 -22.34 83.7
-136.45 -24.91 84.43
-140.78 -24.79 82.73
-136.55 -27.44 83.74
-140.84 -27.3 81.99
-136.57 -29.97 82.98
-140.97 -29.86 81.42
-136.73 -32.54 82.43
-141.02 -32.36 80.63
-136.76 -35.12 81.64
-141.09 -34.97 79.94
-141.32 -37.69 79.69
-136.83 -37.72 80.96
-141.45 -40.33 79.13
-136.9 -40.34 80.32
-137.11 -43 79.41
-141.48 -42.91 78.35
-141.57 -45.38 77.61
-137.04 -45.54 78.64
-141.59 -47.8 76.7
-137.03 -47.91 77.56
-141.86 -50.43 76.49
-137.15 -50.39 76.9
-141.9 -52.84 75.63
-137.27 -52.84 76.11
-141.91 -55.11 74.4
-137.53 -55.19 75.26
-137.48 -57.49 74.21
-141.9 -57.35 73.07
-142.03 -59.74 72.14
-137.7 -59.92 73.43
-142.25 -62.22 71.44
-137.97 -62.48 72.92
-142.57 -64.67 70.67
-138.15 -65.14 72.4
-142.87 -67.1 69.86
-138.34 -67.41 71.12
-143.16 -69.56 69.09
-138.58 -69.8 70.17
-143.42 -71.97 68.22
-138.72 -72 68.84
-143.42 -74.03 66.78
-138.71 -74.17 67.59
-143.52 -76.26 65.69
-138.9 -76.5 66.65
-143.64 -78.59 64.8
-139.03 -78.91 65.88
-143.64 -80.66 63.43
-139.36 -81.09 64.3
-142.41 80.53 78.87
-142.88 83.09 77.59
-141.83 77.87 79.86
-141.49 75.33 80.8
-140.97 72.61 81.19
-140.47 70.13 81.77
-140.01 67.69 82.47
-139.94 65.21 83.59
-139.84 62.72 84.64
-139.44 60.04 85.13
-139.12 57.42 85.86
-138.88 54.8 86.42
-138.56 52.14 86.78
-138.19 49.56 87.25
-137.83 46.99 87.76
-137.58 44.31 88.01
-137.31 41.63 88.23
-137.03 38.95 89.21
-136.57 36.22 89.77
-136.22 33.57 90.06
-135.88 30.91 90.36
-135.74 28.24 91.1
-135.47 25.56 91.56
-134.94 22.88 91.41
-134.47 20.19 91.43
-134.08 17.49 91.57
-133.61 14.8 91.52
-133.09 12.1 91.2
-132.71 9.37 91.23
-132.3 6.67 91.32
-131.94 3.96 91.53
-131.76 1.11 91.67
-131.5 -1.71 91.62
-131.31 -4.41 90.89
-131.1 -7.09 90.13
-131.35 -9.7 89.79
-131.55 -12.29 89.33
-131.63 -14.81 88.62
-131.74 -17.34 87.96
-131.85 -19.85 87.19
-132.06 -22.42 86.66
-132.19 -25.02 86.17
-132.25 -27.57 85.48
-132.26 -30.09 84.65
-132.44 -32.72 84.26
-132.56 -35.36 83.72
-132.63 -37.97 83.04
-132.75 -40.58 81.94
-132.83 -43.16 80.72
-132.77 -45.71 79.94
-132.75 -48.3 79.25
-132.77 -50.64 78.12
-132.8 -52.99 77
-132.95 -55.32 76.2
-133.13 -57.69 75.53
-133.33 -60.11 74.69
-133.5 -62.48 73.72
-133.64 -65.09 73
-133.72 -67.59 72.04
-133.86 -69.81 70.74
-134.01 -72.03 69.43
-134.18 -74.44 68.63
-134.35 -76.86 67.84
-134.77 -79.33 66.76
-135.07 -81.54 65.2
-138.04 81.11 79.93
-138.51 83.66 78.64
-137.48 78.45 80.95
-136.81 75.7 81.58
-136.53 73.2 82.68
-136.2 70.85 83.66
-136.01 68.35 84.53
-135.78 65.76 85.17
-135.49 63.19 85.82
-135.19 60.56 86.38
-134.98 57.99 87.45
-134.76 55.37 88.25
-134.53 52.77 88.88
-134 50.11 89.1
-133.65 47.3 89.03
-133.3 44.56 89.42
-133.29 41.92 90.17
-132.89 39.2 91
-132.5 36.43 91.58
-132.05 33.68 92.21
-131.7 30.98 92.36
-131.44 28.31 92.66
-131.04 25.67 93.02
-130.62 23.02 93.01
-130.15 20.36 93.11
-129.82 17.66 93.35
-129.27 14.97 93.05
-128.74 12.27 92.73
-128.4 9.55 92.87
-127.96 6.85 92.86
-127.84 4 93.22
-127.59 1.17 93.17
-127.27 -1.64 92.97
-127.25 -4.36 92.57
-127.15 -7.08 92.07
-127.17 -9.83 91.83
-127.29 -12.38 91.16
-127.29 -14.86 90.23
-127.44 -17.42 89.6
-127.57 -19.97 88.96
-127.76 -22.53 88.35
-127.82 -25.1 87.72
-127.85 -27.64 86.95
-127.95 -30.27 86.46
-128.2 -32.95 86.24
-128.25 -35.54 85.49
-128.5 -38.26 84.8
-128.59 -40.83 83.55
-128.62 -43.36 82.3
-128.5 -45.86 81.36
-128.57 -48.51 80.64
-128.51 -50.96 79.6
-128.63 -53.39 78.68
-128.82 -55.89 78.24
-129.15 -58.39 77.85
-129.06 -60.46 76.29
-128.99 -62.4 74.44
-128.98 -64.79 73.19
-129.01 -67.15 71.96
-128.97 -69.58 70.84
-129.28 -72.05 69.98
-129.48 -74.55 69.36
-130.01 -77.21 68.65
-130.42 -79.71 67.63
-130.79 -82.03 66.21
-133.82 81.84 81.46
-134.36 84.47 80.38
-133.19 79.09 82.22
-132.49 76.28 82.7
-131.95 73.65 83.71
-131.93 71.29 85
-131.87 68.9 86.17
-131.5 66.27 86.57
-131.13 63.64 86.94
-130.87 61.02 87.58
-130.68 58.45 88.47
-130.46 55.86 89.34
-130.18 53.24 90.02
-129.88 50.44 90.31
-129.64 47.69 90.79
-129.42 44.94 91.36
-129.23 42.2 92.03
-128.71 39.37 92.41
-128.45 36.65 93.48
-128.03 33.86 94.03
-127.47 31.03 94.24
-127.19 28.41 94.71
-126.88 25.78 95.12
-126.32 23.16 94.88
-125.8 20.53 94.74
-125.36 17.84 94.64
-124.86 15.16 94.43
-124.49 12.44 94.52
-124.2 9.71 94.8
-123.95 6.88 94.78
-123.68 4.05 94.73
-123.4 1.23 94.62
-123.18 -1.6 94.69
-123.37 -4.41 94.84
-123.31 -7.12 94.32
-123.16 -9.79 93.63
-122.95 -12.42 92.76
-123.09 -14.99 92.12
-123.27 -17.57 91.56
-123.4 -20.13 90.9
-123.5 -22.66 90.14
-123.53 -25.22 89.42
-123.57 -27.78 88.7
-123.68 -30.42 88.22
-123.74 -33.02 87.62
-123.94 -35.69 86.77
-124.14 -38.36 85.91
-124.27 -40.96 84.88
-124.51 -43.67 84.17
-124.44 -46.18 83.04
-124.36 -48.68 81.9
-124.32 -51.14 80.87
-124.34 -53.66 80.01
-124.65 -56.22 79.72
-124.85 -58.64 79.12
-124.76 -60.62 77.46
-124.57 -62.46 75.52
-124.49 -64.69 73.94
-124.51 -67.1 72.74
-124.57 -69.65 71.8
-124.65 -72.26 70.99
-125.14 -74.86 70.13
-125.57 -77.36 69.04
-126.01 -79.84 67.96
-126.39 -82.16 66.58
-129.58 82.52 82.46
-130.23 85.32 82
-128.9 79.77 83.09
-128.4 77.11 83.84
-127.98 74.41 84.96
-127.56 71.77 85.9
-127.33 69.24 86.57
-127.15 66.76 87.43
-126.86 64.14 88.01
-126.52 61.49 88.81
-126.36 58.96 89.84
-126.14 56.38 90.8
-125.97 53.53 91.15
-125.51 50.64 91.5
-125.42 47.93 92.31
-125.22 45.19 93.14
-125.05 42.45 93.81
-124.64 39.66 94.38
-124.31 36.88 95.2
-123.77 34.05 95.42
-123.26 31.23 95.69
-122.78 28.52 96.11
-122.44 25.87 96.38
-121.98 23.27 96.26
-121.42 20.65 96.06
-121.04 17.96 96.08
-120.68 15.29 96.36
-120.38 12.57 96.56
-120.17 9.75 96.72
-119.91 6.93 96.66
-119.55 4.12 96.37
-119.27 1.3 96.28
-119.07 -1.54 96.32
-119.25 -4.36 96.51
-119.22 -7.1 96.08
-119.04 -9.77 95.31
-119 -12.5 94.8
-118.91 -15.21 94.19
-119.08 -17.79 93.59
-119.2 -20.38 92.98
-119.3 -22.91 92.18
-119.31 -25.47 91.43
-119.31 -28 90.63
-119.33 -30.55 89.87
-119.45 -33.15 88.84
-119.6 -35.8 87.91
-119.83 -38.5 87.17
-120.05 -41.2 86.43
-120.26 -43.87 85.57
-120.32 -46.42 84.63
-120.24 -48.94 83.59
-120.24 -51.46 82.7
-120.29 -53.99 81.83
-120.1 -56.26 80.6
-120.22 -58.48 79.45
-120.33 -60.66 78.2
-120.24 -62.81 76.84
-120.26 -65.2 75.6
-120.18 -67.48 74.2
-120.23 -70.02 73.25
-120.52 -72.67 72.16
-120.81 -75.19 70.96
-121.18 -77.58 69.65
-121.52 -79.9 68.24
-121.92 -82.27 66.97
-125.25 83.17 83.41
-125.88 85.88 82.84
-124.6 80.45 83.94
-124.22 77.72 84.75
-123.94 75.09 85.93
-123.46 72.43 86.81
-122.93 69.71 87.46
-122.73 67.14 88.15
-122.59 64.64 89.06
-122.25 62 89.9
-121.95 59.4 90.9
-121.96 56.7 91.92
-121.73 53.8 92.2
-121.47 50.99 93.04
-121.27 48.22 94.07
-121.07 45.45 94.8
-120.88 42.69 95.58
-120.53 39.9 96.26
-120.06 37.06 96.59
-119.52 34.23 96.77
-119.19 31.45 97.53
-118.64 28.71 97.7
-118.07 25.97 97.81
-117.65 23.36 97.86
-117.2 20.75 97.82
-116.76 18.09 97.81
-116.45 15.42 98.16
-116.25 12.62 98.27
-115.94 9.82 98.09
-115.72 7.01 98.16
-115.43 4.19 98.08
-115.24 1.34 98.13
-115.02 -1.5 98.11
-115.03 -4.27 97.86
-115.05 -7.04 97.62
-115.01 -9.78 97.12
-114.91 -12.5 96.46
-114.83 -15.21 95.87
-114.79 -17.94 95.36
-114.95 -20.55 94.79
-115.09 -23.14 94.17
-115.09 -25.69 93.41
-115.09 -28.25 92.66
-115.19 -30.82 91.55
-115.34 -33.43 90.58
-115.56 -36.16 89.86
-115.65 -38.76 88.81
-115.73 -41.32 87.6
-115.89 -43.96 86.62
-115.94 -46.5 85.75
-115.97 -49.02 84.82
-116.06 -51.62 84.1
-116.16 -54.22 83.41
-116 -56.46 81.98
-115.78 -58.59 80.34
-115.73 -60.7 78.9
-115.82 -63.01 77.89
-115.91 -65.56 77.02
-115.85 -67.86 75.66
-116.07 -70.39 74.35
-116.45 -73.24 73.66
-116.73 -75.78 72.45
-116.87 -78.01 70.66
-117.13 -80.1 68.85
-117.46 -82.37 67.36
-120.93 83.58 83.84
-121.35 86.18 83.25
-120.43 80.92 84.76
-120.24 78.29 85.68
-119.85 75.73 86.84
-119.39 73.08 87.68
-118.97 70.39 88.56
-118.52 67.71 89.38
-118.27 65.1 89.93
-117.89 62.43 90.71
-117.77 59.68 91.68
-117.62 56.89 92.64
-117.53 54.11 93.38
-117.25 51.28 94.27
-116.99 48.44 95.07
-116.61 45.56 95.63
-116.37 42.76 96.18
-116.01 39.98 96.85
-115.62 37.17 97.41
-115.23 34.39 98.02
-114.97 31.62 98.96
-114.53 28.91 99.33
-113.9 26.15 99.26
-113.4 23.47 99.53
-113.04 20.85 99.72
-112.61 18.2 99.71
-112.34 15.45 99.77
-112.11 12.66 99.75
-111.7 9.9 99.43
-111.54 7.08 99.65
-111.31 4.26 99.65
-111.1 1.42 99.6
-110.91 -1.42 99.76
-110.84 -4.17 99.3
-110.76 -6.92 98.71
-110.8 -9.71 98.47
-110.76 -12.46 97.96
-110.67 -15.19 97.39
-110.65 -17.93 96.92
-110.56 -20.62 96.27
-110.66 -23.19 95.59
[...]
CELL_DATA 49152
SCALARS Temperature float 1
LOOKUP_TABLE default
332.932
329.831
294.573
298.974
327.065
321.293
271.537
296.216
301.941
306.08
316.115
305.236
310.71
298.386
312.751
308.477
319.044
332.928
300.01
309.858
267.034
238.244
236.379
241.818
306.037
287.285
324.952
291.634
315.895
303.61
266.157
301.676
284.359
273.816
290.245
275.178
300.98
310.707
277.64
275.514
273.43
300.884
289.321
318.433
312.831
273.357
302.608
286.915
294.769
262.68
253.277
272.062
291.931
267.944
255.769
255.772
225.88
279.154
251.546
227.855
253.515
221.046
193.871
262.405
246.552
259.022
74.3246
232.104
59.9851
55.5849
55.0735
51.8809
50.69
43.0763
45.1271
32.104
35.973
37.7509
33.0018
34.043
28.9601
30.4004
24.2119
26.7126
26.7229
22.6828
22.9418
30.1342
28.9143
27.8389
21.6841
17.3118
23.6706
8.58091
6.2865
11.2356
5.88228
5.51128
6.89021
4.31209
7.81849
5.34024
6.87973
4.38306
2.42419
3.03118
1.65337
1.05
1.48544
2.15797
2.78599
3.41641
2.74642
3.45717
2.31847
0.394094
1.70181
0.695648
1.09259
0.640257
0.254041
0.419346
0.615113
0.653684
0.70412
0.762249
0.000862347
0.000961585
326.806
328.402
309.222
291.832
317.532
323.863
272.658
265.484
292.969
301.916
300.534
313.668
324.342
309.908
325.711
313.389
291.756
311.048
301.714
299.701
293.005
279.685
281.068
251.999
297.23
310.383
295.794
316.875
265.115
280.735
254.14
229.726
277.573
324.092
291.793
299.292
307.307
278.309
263.565
283.583
287.585
321.578
309.164
302.599
243.222
260.48
281.207
250.449
265.884
258.715
245.613
247.942
200.444
260.608
237.493
244.702
260.895
234.633
186.311
263.095
212.909
272.949
257.655
251.05
63.4799
200.378
71.7063
66.0864
68.984
40.5569
45.9958
19.7293
21.5456
28.0371
31.2236
42.3173
41.4714
48.6267
47.5448
36.3732
39.3306
27.3885
22.4874
23.1961
24.8714
24.4339
22.0521
23.7338
23.9918
28.7491
26.4806
26.6181
24.5819
15.8444
5.7333
6.04157
5.24951
5.0548
4.08126
4.59817
4.33128
2.2942
1.98137
1.63374
2.80149
1.67132
1.52188
1.50916
2.40649
2.21983
3.1654
1.56442
3.41294
2.60876
0.568204
0.60409
0.75984
0.61591
0.62994
0.542894
0.558628
0.602041
0.624969
0.679819
0.727247
0.654526
0.000796321
0.000743311
327.895
327.314
312.338
310.906
286.673
307.117
316.896
278.817
324.363
302.541
325.76
314.881
316.763
335.579
307.161
324.849
291.282
285.639
324.343
310.317
316.173
306.48
310.883
296.769
278.911
297.42
253.886
289.637
279.182
273.14
312.607
286.563
326.862
314.266
297.945
301.358
284.473
306.584
291.065
276.854
318.406
279.99
291.215
277.813
238.74
220.008
255.571
249.228
264.861
278.592
201.462
235.129
179.222
180.221
249.333
265.772
258.33
242.57
268.627
291.85
274.58
247.213
246.747
215.091
191.249
61.3756
199.285
70.878
260.099
260.143
206.744
230.575
44.8848
37.9565
39.0962
34.3632
160.693
24.9055
28.2481
31.2996
27.2104
35.3471
29.3423
30.4535
33.3726
23.8277
26.6965
33.2015
23.681
19.1249
19.0321
21.7674
21.6129
18.5397
8.54017
4.96015
5.53809
4.21344
5.04859
4.89291
2.7643
2.87901
2.68315
2.13414
2.17441
3.58411
2.78403
4.3958
1.75863
1.54701
0.700714
0.373644
0.448468
0.152419
0.321305
0.159127
0.180082
0.146489
0.204194
0.244153
0.646016
0.259438
0.660315
0.763529
0.680758
0.671097
0.000495358
0.000380297
325.157
333.701
302.943
315.544
278.029
287.385
314.061
321.384
335.023
322.668
334.333
322.53
289.015
303.342
280.685
297.149
296.338
291.978
314.682
320.497
309.716
306.656
298.297
296.851
266.578
257.652
287.027
253.629
305.552
296.118
324.831
312.502
315.663
276.627
294.109
329.232
304.252
299.116
274.059
270.665
287.752
301.452
290.581
298.308
226.522
253.918
232.551
256.136
233.689
264.395
189.306
165.702
250.756
201.411
270.414
286.632
256.578
267.015
297.729
247.013
247.802
236.477
222.059
268.689
287.675
256.987
242.077
242.027
210.847
253.318
46.7153
122.971
151.635
53.7005
29.1216
211.563
204.062
206.03
171.078
200.335
139.976
168.001
101.17
24.753
33.5992
30.4672
39.48
30.6658
19.4394
19.2695
16.9843
23.8462
10.4552
10.6189
10.3865
5.20715
4.63518
4.39194
3.63701
4.74442
2.30213
2.18116
2.25262
2.47741
3.76136
4.32698
4.497
3.52163
0.53387
0.510007
0.477592
0.43765
0.149124
0.156718
0.144751
0.137826
0.138558
0.141735
0.17098
0.170266
0.180334
0.167698
0.639893
0.575289
0.610951
0.564842
0.427663
0.390307
285.232
316.804
285.233
292.692
295.497
277.198
321.99
317.761
316.648
334.456
296.334
318.382
297.875
269.266
286.111
272.862
304.201
298.677
322.926
317.512
320.163
316.985
283.592
298.842
268.21
267.518
308.155
292.969
299.071
317.733
310.089
310.659
284.096
303.029
330.099
313.468
296.72
260.173
265.766
260.778
291.052
278.787
282.89
266.223
209.075
183.499
194.434
206.463
239.968
226.199
203.516
284.684
269.173
283.745
289.635
281.948
266.551
261.177
231.329
252.392
245.454
248.462
266.319
263.711
284.733
288.192
215.72
204.213
38.6484
31.4486
200.867
53.4168
213.158
218.355
226.983
230.517
219.088
214.322
179.306
185.387
178.099
184.413
147.874
172.572
152.653
207.56
14.8348
24.4107
10.9225
19.0373
13.3529
13.7624
13.2139
13.0822
9.87234
10.3555
2.00811
3.41534
3.15268
3.27768
3.26535
3.16791
3.33363
3.33519
4.397
0.424008
1.71178
0.288495
0.236756
0.22724
0.110351
0.403975
0.300062
0.268264
0.212196
0.141299
0.145314
0.166447
0.173593
0.158566
0.172326
0.124847
0.140261
0.0837085
0.126986
0.0288726
0.0406789
0.0286577
278.078
270.218
277.121
282.397
299.745
296.515
323.135
319.138
306.524
309.826
288.87
295.461
296.672
305.25
308.25
290.953
306.296
304.608
316.708
319.914
318.548
316.018
267.474
272.184
303.997
280.277
317.345
326.025
317.834
310.98
308.896
315.242
298.894
308.465
315.852
271.963
256.537
259.354
265.335
312.913
289.841
261.317
277.565
247.588
245.808
227.501
239.545
217.904
257.026
249.29
279.631
288.304
277.085
271.778
238.663
264.293
239.203
260.307
241.697
221.122
250.478
272.62
271.46
263.553
251.039
277.028
225.316
204.036
187.21
40.556
175.188
200.533
175.201
170.735
202.632
198.77
205.375
198.287
198
164.898
163.805
167.513
165.791
151.916
30.2377
16.9805
22.4671
14.066
5.80547
4.53579
4.20833
3.51934
2.22465
2.31296
2.42193
3.01946
2.39358
2.01999
1.91661
1.37689
1.65085
2.24699
2.19021
3.09014
1.37903
0.326248
0.144749
0.0777921
0.114233
0.171713
0.117636
0.171719
0.226031
0.284843
0.234406
0.213319
0.208545
0.16807
0.154032
0.210711
0.153148
0.148429
0.12602
0.0960513
0.0793961
0.0209651
0.0290755
0.020662
272.931
268.817
297.024
274.831
309.151
302.251
322.939
323.631
303.267
304.613
305.035
293.293
305.862
305.027
294.655
312.132
298.147
301.405
309.445
310.844
307.041
310.677
292.587
269.382
308.757
307.513
318.065
299.779
282.226
292.392
279.092
290.143
281.144
280.415
270.96
255.104
237.279
291.768
301.854
315.727
256.327
283.179
255.86
224.239
248.725
273.053
243.104
277.306
255.904
256.354
290.926
262.122
269.049
250.722
195.992
218.149
254.104
275.032
241.478
256.487
262.722
248.023
250.908
274.633
206.206
229.574
119.723
203.94
205.341
158.169
154.545
34.6589
151.975
145.784
195.397
188.622
107.183
163.839
28.9834
83.5195
14.1767
14.6795
13.7415
7.01438
7.23107
26.6366
22.8062
28.5031
12.9826
11.6058
14.5153
11.5943
11.1558
2.5514
2.85084
2.45942
2.34012
2.2264
1.49797
1.76067
2.21046
2.03355
2.1592
1.88957
0.805277
0.186044
0.233232
0.258529
0.288048
0.260809
0.301691
0.282284
0.279895
0.177839
0.154932
0.148313
0.128152
0.074841
0.181642
0.153527
0.0901202
0.140368
0.0794496
0.0646746
0.0570888
0.0514257
0.0328218
0.0232038
294.174
281.813
300.779
301.639
305.403
305.473
312.989
315.989
302.82
297.7
315.302
305.003
310.604
304.05
282.263
288.514
310.77
304.095
305.272
312.617
304.424
308.552
299.833
298.192
304.676
303.811
286.726
294.82
266.438
273.214
282.286
277.802
285.34
307.448
282.589
294.618
289.425
315.297
316.133
278.257
266.804
269.329
226.849
209.712
260.424
263.684
257.022
283.17
238.505
279.57
263.816
260.045
240.827
251.579
234.856
213.099
282.064
268.965
257.561
238.963
248.589
237.56
267.254
181.32
185.11
141.299
171.661
94.8274
212.478
222.839
181.037
161.811
213.19
176.196
248.635
227.834
196.493
191.293
15.7027
8.96611
4.65068
4.81077
4.07653
4.75043
3.49257
2.84365
2.14957
2.2448
2.71372
3.24748
2.13255
1.8966
1.90872
1.57008
1.63369
2.0357
1.7308
1.89238
1.15975
1.36842
1.47028
1.88297
1.76814
1.18016
1.09958
0.167427
0.218659
0.321684
0.284727
0.314765
0.302732
0.266371
0.251202
0.210398
0.188992
0.188898
0.142996
0.0539752
0.130494
0.0486671
0.112645
0.0503165
0.0393851
0.0397846
0.0270058
0.0339411
0.0407904
0.0560677
328.945
312.638
314.796
314.154
302.958
314.166
321.446
321.253
296.612
308.418
283.158
308.847
291.655
296.899
318.944
282.522
322.138
316.283
296.862
304.258
297.313
304.415
300.277
301.679
307.808
306.19
299.097
291.383
307.169
287.566
309.201
305.342
319.728
313.791
304.415
306.313
318.651
314.179
291.412
278.879
280.128
305.104
252.244
291.184
284.367
213.514
287.205
245.263
265.708
272.197
246.101
274.97
233.952
240.901
236.251
248.576
268.666
260.012
241.564
287.143
257.479
228.975
232.629
176.993
219.974
225.963
198.8
201.67
211.034
214.521
196.645
196.421
222.872
219.14
225.895
233.362
211.65
163.237
12.1339
19.3435
18.5406
13.3271
13.9529
3.53112
3.16004
3.36269
2.68501
1.77846
2.00966
2.62609
2.18484
2.0048
3.86389
7.91674
1.22361
1.53855
1.22457
1.50027
1.11196
1.11782
1.51631
1.38236
0.255814
0.612988
0.123326
0.0511835
0.0555803
0.162885
0.204372
0.182761
0.205884
0.0843728
0.0733338
0.155975
0.141122
0.108579
0.0625992
0.084094
0.0346141
0.0377237
0.0318847
0.0304202
0.0305277
0.0291487
0.0377713
0.0510596
0.0544201
0.0478586
312.463
321.938
300.659
298.443
298.014
287.825
301.217
310.075
312.125
292.701
306.292
290.96
314.213
310.49
327.881
334.522
322.677
315.45
290.933
338.642
309.825
342.336
323.46
307.553
327.033
278.131
308.902
312.697
314.969
313.418
304.32
306.927
311.622
311.714
303.507
309.096
313.894
286.528
273.724
298.027
301.135
324.048
286.018
272.652
200.857
213.732
257.486
258.557
279.715
290.402
280.112
251.694
236.362
227.52
238.955
254.74
258.169
262.034
276.444
287.962
223.344
202.634
179.037
179.738
220.824
221.154
188.634
199.521
187.831
203.669
222.598
206.235
230.526
230.023
163.888
209.396
8.29236
25.2094
16.8889
8.88752
11.5569
12.8471
12.8748
14.8359
13.25
3.37608
2.65088
2.37291
1.81857
1.95032
9.1153
9.90088
10.2727
9.42088
7.92211
2.03894
2.16009
1.99987
2.10651
2.07031
1.99213
1.6986
1.09034
0.276948
0.256301
0.284137
0.25405
0.211452
0.215491
0.158082
0.162981
0.249569
0.232329
0.216249
0.199803
0.17986
0.159457
0.159536
0.144251
0.123824
0.0329861
0.060271
0.0442098
0.0981734
0.0766513
0.0565017
0.0550919
0.0227857
297.701
301.923
305.999
298.592
303.952
297.744
325.024
305.899
325.754
321.24
320.127
312.191
315.013
342.262
333.599
327.119
325.896
333.473
339.95
348.237
339.378
331.673
304.43
312.789
292.557
290.745
295.683
314.451
304.361
311.747
310.324
305.017
313.571
285.976
303.876
301.465
286.62
289.383
293.47
290.399
315.025
280.68
246.766
250.467
243.848
182.299
253.67
299.568
294.46
273.194
258.296
218.578
227.019
217.203
248.603
235.094
252.061
247.39
276.518
253.619
139.957
189.737
45.669
190.569
221.049
208.439
218.863
194.219
215.418
207.605
221.901
234.012
201.694
220.446
199.205
170.606
10.9234
5.79719
4.46926
3.25416
6.03061
5.95178
16.0238
12.9089
11.7757
12.5788
11.7605
2.48082
11.2111
11.1064
10.381
10.2316
9.5677
9.57485
8.46364
7.84996
5.3341
2.15885
1.68074
1.66379
1.46834
1.39512
1.306
0.640151
0.379851
0.223614
0.294572
0.221573
0.220993
0.220347
0.208353
0.212853
0.202643
0.206159
0.193092
0.194411
0.179207
0.170832
0.152572
0.145045
0.152444
0.0447687
0.101205
0.119048
0.0505041
0.0663202
0.0570321
0.0412724
304.669
341.908
321.518
321.16
312.998
317.223
334.76
337.714
312.097
324.293
319.644
317.534
331.515
352.919
322.234
332.8
330.418
347.191
347.409
338.987
330.208
293.636
299.446
308.095
281.472
340.849
300.396
348.162
327.961
305.521
287.353
319.864
299.523
283.07
310.923
276.162
291.751
289.531
292.823
284.293
290.7
254.481
253.958
261.829
249.948
279.972
285.598
276.525
258.187
186.463
211.526
187.998
191.446
227.361
227.425
227.336
242.034
237.614
255.254
227.61
165.434
240.512
182.391
238.408
246.14
237.261
209.413
220.697
221.233
209.583
159.31
194.619
39.9517
142.966
195.846
183.907
15.6349
4.94645
4.29522
2.86851
4.85453
5.89499
13.8209
14.4941
4.74878
6.39794
0.906125
9.71982
9.42394
10.2534
9.77779
8.23401
7.88271
5.97674
4.93539
0.603822
0.611589
0.724432
0.587205
0.0952717
0.111729
0.990377
0.825379
0.507235
0.355197
0.35593
0.193072
0.240747
0.161557
0.173933
0.162176
0.172167
0.1649
0.177227
0.167106
0.171488
0.157913
0.141881
0.123973
0.0877765
0.0501074
0.028434
0.0722827
0.0253764
0.0172887
0.00657104
0.00854478
0.0384361
336.694
333.792
315.047
338.209
312.373
341.849
341.858
327.517
316.292
317.605
328.978
328.781
352.513
334.172
324.865
325.152
336.169
346.52
332.329
301.794
283.121
308.175
304.671
350.576
338.115
369.542
346.247
362.27
295.007
309.529
176.066
263.08
287.389
244.845
281.733
289.988
296.488
273.75
288.715
276.432
267.897
257.688
270.08
237.423
273.392
229.994
262.616
203.35
120.113
252.066
211.252
261.259
225.074
257.869
234.837
254.689
251.285
253.807
250.506
234.813
246.331
251.887
236.046
256.388
238.518
245.213
177.865
189.807
194.215
206.077
145.816
84.8821
46.4664
44.9926
47.5263
190.523
26.7669
31.998
7.95315
5.23588
6.78164
5.33236
5.7908
5.45583
3.98624
3.49549
3.38483
0.466782
0.459829
0.608646
1.05818
0.520316
0.590227
0.0563026
0.000680235
0.000858568
0.00124433
0.824019
0.735806
0.875335
0.745027
0.141079
0.061813
0.181856
0.134047
0.069672
0.0735256
0.0877042
0.0912269
0.173391
0.166507
0.138598
0.133111
0.143715
0.135284
0.129259
0.117532
0.124532
0.10945
0.0935911
0.0710952
0.0421667
0.0154852
0.0212091
0.00987726
0.0158061
0.00958764
0.0243167
329.044
345.541
332.684
351.937
337.409
339.083
324.281
330.081
315.599
337.2
332.22
342.465
346.08
335.545
333.927
330.184
351.643
265.41
296.282
311.981
301.035
338.518
342.59
341.077
356.266
364.532
344.321
338.767
227.842
240.163
115.891
118.576
94.3136
71.7921
270.91
258.75
255.608
249.709
259.785
240.892
238.539
235.508
228.281
224.47
232.144
250.855
232.053
274.507
265.908
309.631
278.98
308.924
279.118
269.937
271.139
215.024
258.411
265.691
247.74
238.155
258.792
237.405
253.393
240.606
195.543
216.441
186.287
160.118
215.653
202.581
191.409
185.214
221.796
172.105
214.537
226.02
17.5352
5.62241
4.91074
6.38815
5.49254
6.91954
6.01284
6.26025
2.8774
5.06769
4.84482
4.31958
0.166674
0.21963
0.160422
0.142425
0.0808421
0.0543392
0.0579265
0.0111688
0.000972156
0.00141247
0.0171758
0.0126006
0.0341337
0.150307
0.118227
0.383122
0.175793
0.0333378
0.0255508
0.0220932
0.0218603
0.131761
0.139485
0.0585952
0.0524318
0.0428294
0.0481967
0.0407594
0.0401666
0.0473655
0.042767
0.0877281
0.0831248
0.0930113
0.0433707
0.0159453
0.00367062
0.00297793
0.00352198
0.00353679
340.511
354.251
346.447
333.332
327.985
321.963
314.718
330.161
321.66
356.595
335.816
352.231
335.253
335.66
330.544
301.901
298.383
291.51
326.307
330.434
342.202
286.602
332.103
292.568
344.857
322.157
302.118
315.066
153.751
78.9538
106.224
109.248
61.5599
78.2538
39.5267
36.2435
199.801
242.084
238.275
222.609
231.744
259.29
228.311
272.673
256.481
284.827
277.141
286.503
303.7
305.6
296.354
297.794
253.087
239.068
197.903
226.137
259.634
242.03
226.214
221.03
230.562
230.77
238.032
225.015
209.753
194.946
238.685
221.437
218.801
227.212
209.423
202.163
238.646
232.398
27.4417
142.394
5.78406
3.35688
6.52507
5.15369
4.17435
5.12234
3.24057
5.39263
0.72337
0.834196
2.67539
4.0701
0.214849
0.101191
0.0716319
0.0668597
0.0286173
0.0574424
0.0457209
0.0455511
7.97479e-42
8.23964e-42
0.00173523
0.000716341
0.00107065
0.260682
0.454572
0.0931724
0.0761869
0.0346631
0.0151825
0.0152623
0.00904272
0.0166287
0.00499806
0.05254
0.0465576
0.029707
0.0340556
0.0425738
0.0401319
0.0408812
0.0369634
0.0437482
0.0424888
0.0996166
0.081162
0.0243629
0.0223918
0.00378309
0.0244817
0.031995
346.961
327.007
319.524
331.965
314.761
326.006
322.085
332.738
343.059
338.382
332.37
339.203
314.744
312.144
268.549
275.792
291.452
279.723
311.051
280.79
268.407
268.254
294.211
281.148
280.774
307.328
242.104
275.281
130.755
121.332
122.355
107.357
84.3772
56.7252
59.6126
48.8013
83.9623
89.0861
225.521
268.079
264.679
290.922
275.358
284.164
282.953
279.565
281.363
274.401
299.061
263.54
280.907
258.449
192.276
243.655
178.784
209.417
220.844
200.323
185.541
237.029
215.795
216.986
212.111
211.701
230.896
211.271
243.376
237.76
203.572
200.827
194.104
197.469
199.219
213.94
204.615
19.4869
11.7556
9.70531
5.0857
1.64599
1.05661
1.2456
0.700189
0.87274
0.837351
0.599487
1.2497
1.73439
0.856938
0.556139
0.0314368
0.0254069
0.0229817
0.0222243
0.0164892
0.0184179
0.00318928
0.0021205
5.46109e-05
0.00012279
8.38421e-05
0.000350084
0.00174684
0.00216804
0.00226737
0.0799374
0.0308437
0.0148364
0.00184384
0.00650259
0.000493658
0.00166656
0.00148291
0.0438048
0.0419293
0.0439689
0.044456
0.0288859
0.0224456
0.00454959
0.0041463
0.00437163
0.00149453
0.0223682
0.0171988
0.00303009
0.00207741
0.00407532
331.897
308.359
325.58
333.68
317.892
316.477
288.406
306.281
295.834
305.783
303.812
313.695
270.036
318.469
298.344
262.007
303.713
296.215
294.103
290.13
273.822
276.786
268.549
283.559
244.483
267.84
233.754
258.643
237.198
223.437
246.03
192.293
255.484
88.9321
245.282
240.633
268.256
199.555
262.488
295.076
287.954
291.889
279.654
272.734
273.894
273.054
270.066
275.989
272.189
275.468
274.891
265.868
251.013
210.379
199.387
201.716
196.7
235.121
232.416
246.568
215.572
243.457
218.931
221.903
214.504
228.996
172.181
207.86
173.285
129.68
129.68
91.8217
137.355
134.27
183.968
180.997
0
0.322195
0.616309
0.337117
0.185261
0.273232
0.287407
0.281129
0.371556
0.596699
0.95216
2.08247
7.8966e-22
2.82417e-22
0.00361667
0.00368981
0.00103858
0.00191495
0.000230413
0.000348976
0.000246082
9.38147e-05
0.000210327
2.77047e-05
0.000125514
0.000106221
0.000153644
0.00016863
0.000173225
0.0236229
0.00204276
0.00109273
0.0022125
0.00215963
0.00238183
0.00194519
0.00225987
0.00124988
0.0284211
0.0265291
0.0301087
0.0375788
0.0317471
0.00829903
0.00276053
0.00425023
0.00361518
0.0173426
0.0167433
0.0164884
0.000456765
0.000756907
310.5
315.295
336.126
302.295
307.805
323.536
287.176
285.735
310.763
309.743
331.865
330.94
324.143
331.818
308.685
325.577
300.965
349.162
305.457
339.631
246.879
281.756
218.14
259.349
244.077
245.91
273.452
262.338
293.432
284.491
285.02
297.551
277.703
284.868
278.884
293.557
297.354
304.746
296.453
286.91
289.907
284.687
270.673
293.974
277.61
283.465
280.748
261.98
274.661
241.535
258.867
252.381
207.696
244.614
210.989
249.079
242.541
253.336
252.599
242.814
241.308
240.943
218.086
220.269
205.424
208.187
153.689
171.583
89.7028
176.536
31.243
27.7144
30.5114
79.6698
5.31612
20.3835
0.709742
3.35321
0.186265
0.253464
0.154013
0.176764
0.190352
0.126328
0.115646
0.111163
0.31696
0.579874
3.50813e-07
5.53519e-06
0.000109537
0.00040259
0.00057175
0.000713287
7.91465e-34
5.43527e-34
8.4105e-34
0.000118864
2.82173e-05
7.2395e-06
8.19034e-05
0.000114739
0.000127844
0.000136677
0.00014098
0.000151144
0.000140738
0.00419751
0.0212044
0.00294756
0.00196926
0.00231351
0.00205779
0.00219559
0.0181066
0.022398
0.0255445
0.0271618
0.0273323
0.0242018
0.00238778
0.0024207
0.00235132
0.00307321
0.0143107
0.00150527
0.0014551
0.000880353
305.829
304.347
303.576
309.096
324.005
323.875
288.1
323.532
319.461
326.367
341.141
325.691
334.904
330.022
322.029
301.562
325.79
314.358
278.492
289.741
162.078
121.135
233.529
151.609
276.082
255.128
282.065
306.37
302.183
308.773
299.478
299.512
285.18
295.377
292.868
286.064
300.718
281.311
279.057
290.337
281.289
296.834
289.379
295.763
278.614
299.908
269.248
222.974
248.313
189.48
250.008
254.234
234.983
279.185
245.785
281.534
257.879
237.768
245.315
221.908
237.784
224.287
210.573
218.243
198.793
196.354
177.324
158.352
166.57
154.111
179.118
180.67
158.362
184.244
4.59144
3.0738
2.25217
1.27834
0.337369
0.341755
0.227903
0.199331
0.109639
0.0850824
0.0609419
0.0637486
0.0217465
0.0718812
0.0113203
1.09067e-06
5.06059e-05
0.000107665
0.000322534
0.000306075