# vtk DataFile Version 3.0
vtk output
ASCII
DATASET POLYDATA
POINTS 24578 float
-151.53 81.83 75.23
-146.76 79.98 77.9
-147.26 82.51 76.57
-151.22 79.35 76.36
-146.3 77.32 78.47
-150.76 76.75 77.01
-146.01 74.82 79.56
-150.4 74.19 77.98
-145.43 72.07 79.86
-149.95 71.56 78.66
-145.02 69.6 80.58
-149.55 69.11 79.46
-144.64 67.21 81.53
-149.14 66.64 80.2
-144.27 64.77 82.34
-148.68 64.12 80.8
-144.06 62.18 83.1
-148.26 61.63 81.51
-143.83 59.57 83.96
-148.2 59.14 82.73
-143.54 56.98 84.63
-148.02 56.58 83.6
-143.3 54.28 84.95
-147.52 53.77 83.62
-142.71 51.53 84.98
-147.03 50.98 83.68
-142.34 49.05 85.71
-146.66 48.52 84.06
-142.24 46.57 86.6
-146.26 46.05 84.34
-145.97 43.63 84.94
-141.82 44.09 87.11
-141.56 41.44 87.04
-145.67 41.21 85.5
-140.98 38.76 87.5
-145.29 38.66 85.7
-140.75 36.16 87.85
-144.89 36.1 85.85
-144.62 33.53 86.3
-140.46 33.57 88.45
-140.13 30.94 88.56
-144.22 30.94 86.41
-143.81 28.2 86.49
-139.84 28.2 88.9
-143.44 25.45 86.68
-139.6 25.51 89.44
-143.18 22.67 87.12
-139.22 22.78 89.44
-142.9 19.88 87.51
-138.79 20.04 89.71
-142.6 17.15 87.83
-138.39 17.32 89.75
-137.91 14.61 89.73
-142.25 14.42 88.03
-141.99 11.68 88.46
-137.6 11.89 89.94
-141.61 8.95 88.57
-137.22 9.16 90.05
-141.13 6.27 88.48
-136.86 6.45 90.3
-140.68 3.58 88.47
-136.37 3.76 90.16
-140.25 0.89 88.51
-135.88 1.07 90.03
-139.71 -1.79 88.26
-135.64 -1.76 90.02
-135.64 -4.55 89.75
-140 -4.44 88.09
-135.69 -7.09 89
-140.34 -7.12 88.03
-135.79 -9.62 88.23
-140.37 -9.69 87.25
-135.84 -12.19 87.54
-140.43 -12.27 86.54
-135.99 -14.75 87
-140.5 -14.79 85.8
-136.21 -17.35 86.64
-140.62 -17.33 85.19
-136.42 -19.93 86.21
-140.85 -19.94 84.82
-136.49 -22.42 85.34
-140.79 -22.34 83.7
-136.45 -24.91 84.43
-140.78 -24.79 82.73
-136.55 -27.44 83.74
-140.84 -27.3 81.99
-136.57 -29.97 82.98
-140.97 -29.86 81.42
-136.73 -32.54 82.43
-141.02 -32.36 80.63
-136.76 -35.12 81.64
-141.09 -34.97 79.94
-141.32 -37.69 79.69
-136.83 -37.72 80.96
-141.45 -40.33 79.13
-136.9 -40.34 80.32
-137.11 -43 79.41
-141.48 -42.91 78.35
-141.57 -45.38 77.61
-137.04 -45.54 78.64
-141.59 -47.8 76.7
-137.03 -47.91 77.56
-141.86 -50.43 76.49
-137.15 -50.39 76.9
-141.9 -52.84 75.63
-137.27 -52.84 76.11
-141.91 -55.11 74.4
-137.53 -55.19 75.26
-137.48 -57.49 74.21
-141.9 -57.35 73.07
-142.03 -59.74 72.14
-137.7 -59.92 73.43
-142.25 -62.22 71.44
-137.97 -62.48 72.92
-142.57 -64.67 70.67
-138.15 -65.14 72.4
-142.87 -67.1 69.86
-138.34 -67.41 71.12
-143.16 -69.56 69.09
-138.58 -69.8 70.17
-143.42 -71.97 68.22
-138.72 -72 68.84
-143.42 -74.03 66.78
-138.71 -74.17 67.59
-143.52 -76.26 65.69
-138.9 -76.5 66.65
-143.64 -78.59 64.8
-139.03 -78.91 65.88
-143.64 -80.66 63.43
-139.36 -81.09 64.3
-142.41 80.53 78.87
-142.88 83.09 77.59
-141.83 77.87 79.86
-141.49 75.33 80.8
-140.97 72.61 81.19
-140.47 70.13 81.77
-140.01 67.69 82.47
-139.94 65.21 83.59
-139.84 62.72 84.64
-139.44 60.04 85.13
-139.12 57.42 85.86
-138.88 54.8 86.42
-138.56 52.14 86.78
-138.19 49.56 87.25
-137.83 46.99 87.76
-137.58 44.31 88.01
-137.31 41.63 88.23
-137.03 38.95 89.21
-136.57 36.22 89.77
-136.22 33.57 90.06
-135.88 30.91 90.36
-135.74 28.24 91.1
-135.47 25.56 91.56
-134.94 22.88 91.41
-134.47 20.19 91.43
-134.08 17.49 91.57
-133.61 14.8 91.52
-133.09 12.1 91.2
-132.71 9.37 91.23
-132.3 6.67 91.32
-131.94 3.96 91.53
-131.76 1.11 91.67
-131.5 -1.71 91.62
-131.31 -4.41 90.89
-131.1 -7.09 90.13
-131.35 -9.7 89.79
-131.55 -12.29 89.33
-131.63 -14.81 88.62
-131.74 -17.34 87.96
-131.85 -19.85 87.19
-132.06 -22.42 86.66
-132.19 -25.02 86.17
-132.25 -27.57 85.48
-132.26 -30.09 84.65
-132.44 -32.72 84.26
-132.56 -35.36 83.72
-132.63 -37.97 83.04
-132.75 -40.58 81.94
-132.83 -43.16 80.72
-132.77 -45.71 79.94
-132.75 -48.3 79.25
-132.77 -50.64 78.12
-132.8 -52.99 77
-132.95 -55.32 76.2
-133.13 -57.69 75.53
-133.33 -60.11 74.69
-133.5 -62.48 73.72
-133.64 -65.09 73
-133.72 -67.59 72.04
-133.86 -69.81 70.74
-134.01 -72.03 69.43
-134.18 -74.44 68.63
-134.35 -76.86 67.84
-134.77 -79.33 66.76
-135.07 -81.54 65.2
-138.04 81.11 79.93
-138.51 83.66 78.64
-137.48 78.45 80.95
-136.81 75.7 81.58
-136.53 73.2 82.68
-136.2 70.85 83.66
-136.01 68.35 84.53
-135.78 65.76 85.17
-135.49 63.19 85.82
-135.19 60.56 86.38
-134.98 57.99 87.45
-134.76 55.37 88.25
-134.53 52.77 88.88
-134 50.11 89.1
-133.65 47.3 89.03
-133.3 44.56 89.42
-133.29 41.92 90.17
-132.89 39.2 91
-132.5 36.43 91.58
-132.05 33.68 92.21
-131.7 30.98 92.36
-131.44 28.31 92.66
-131.04 25.67 93.02
-130.62 23.02 93.01
-130.15 20.36 93.11
-129.82 17.66 93.35
-129.27 14.97 93.05
-128.74 12.27 92.73
-128.4 9.55 92.87
-127.96 6.85 92.86
-127.84 4 93.22
-127.59 1.17 93.17
-127.27 -1.64 92.97
-127.25 -4.36 92.57
-127.15 -7.08 92.07
-127.17 -9.83 91.83
-127.29 -12.38 91.16
-127.29 -14.86 90.23
-127.44 -17.42 89.6
-127.57 -19.97 88.96
-127.76 -22.53 88.35
-127.82 -25.1 87.72
-127.85 -27.64 86.95
-127.95 -30.27 86.46
-128.2 -32.95 86.24
-128.25 -35.54 85.49
-128.5 -38.26 84.8
-128.59 -40.83 83.55
-128.62 -43.36 82.3
-128.5 -45.86 81.36
-128.57 -48.51 80.64
-128.51 -50.96 79.6
-128.63 -53.39 78.68
-128.82 -55.89 78.24
-129.15 -58.39 77.85
-129.06 -60.46 76.29
-128.99 -62.4 74.44
-128.98 -64.79 73.19
-129.01 -67.15 71.96
-128.97 -69.58 70.84
-129.28 -72.05 69.98
-129.48 -74.55 69.36
-130.01 -77.21 68.65
-130.42 -79.71 67.63
-130.79 -82.03 66.21
-133.82 81.84 81.46
-134.36 84.47 80.38
-133.19 79.09 82.22
-132.49 76.28 82.7
-131.95 73.65 83.71
-131.93 71.29 85
-131.87 68.9 86.17
-131.5 66.27 86.57
-131.13 63.64 86.94
-130.87 61.02 87.58
-130.68 58.45 88.47
-130.46 55.86 89.34
-130.18 53.24 90.02
-129.88 50.44 90.31
-129.64 47.69 90.79
-129.42 44.94 91.36
-129.23 42.2 92.03
-128.71 39.37 92.41
-128.45 36.65 93.48
-128.03 33.86 94.03
-127.47 31.03 94.24
-127.19 28.41 94.71
-126.88 25.78 95.12
-126.32 23.16 94.88
-125.8 20.53 94.74
-125.36 17.84 94.64
-124.86 15.16 94.43
-124.49 12.44 94.52
-124.2 9.71 94.8
-123.95 6.88 94.78
-123.68 4.05 94.73
-123.4 1.23 94.62
-123.18 -1.6 94.69
-123.37 -4.41 94.84
-123.31 -7.12 94.32
-123.16 -9.79 93.63
-122.95 -12.42 92.76
-123.09 -14.99 92.12
-123.27 -17.57 91.56
-123.4 -20.13 90.9
-123.5 -22.66 90.14
-123.53 -25.22 89.42
-123.57 -27.78 88.7
-123.68 -30.42 88.22
-123.74 -33.02 87.62
-123.94 -35.69 86.77
-124.14 -38.36 85.91
-124.27 -40.96 84.88
-124.51 -43.67 84.17
-124.44 -46.18 83.04
-124.36 -48.68 81.9
-124.32 -51.14 80.87
-124.34 -53.66 80.01
-124.65 -56.22 79.72
-124.85 -58.64 79.12
-124.76 -60.62 77.46
-124.57 -62.46 75.52
-124.49 -64.69 73.94
-124.51 -67.1 72.74
-124.57 -69.65 71.8
-124.65 -72.26 70.99
-125.14 -74.86 70.13
-125.57 -77.36 69.04
-126.01 -79.84 67.96
-126.39 -82.16 66.58
-129.58 82.52 82.46
-130.23 85.32 82
-128.9 79.77 83.09
-128.4 77.11 83.84
-127.98 74.41 84.96
-127.56 71.77 85.9
-127.33 69.24 86.57
-127.15 66.76 87.43
-126.86 64.14 88.01
-126.52 61.49 88.81
-126.36 58.96 89.84
-126.14 56.38 90.8
-125.97 53.53 91.15
-125.51 50.64 91.5
-125.42 47.93 92.31
-125.22 45.19 93.14
-125.05 42.45 93.81
-124.64 39.66 94.38
-124.31 36.88 95.2
-123.77 34.05 95.42
-123.26 31.23 95.69
-122.78 28.52 96.11
-122.44 25.87 96.38
-121.98 23.27 96.26
-121.42 20.65 96.06
-121.04 17.96 96.08
-120.68 15.29 96.36
-120.38 12.57 96.56
-120.17 9.75 96.72
-119.91 6.93 96.66
-119.55 4.12 96.37
-119.27 1.3 96.28
-119.07 -1.54 96.32
-119.25 -4.36 96.51
-119.22 -7.1 96.08
-119.04 -9.77 95.31
-119 -12.5 94.8
-118.91 -15.21 94.19
-119.08 -17.79 93.59
-119.2 -20.38 92.98
-119.3 -22.91 92.18
-119.31 -25.47 91.43
-119.31 -28 90.63
-119.33 -30.55 89.87
-119.45 -33.15 88.84
-119.6 -35.8 87.91
-119.83 -38.5 87.17
-120.05 -41.2 86.43
-120.26 -43.87 85.57
-120.32 -46.42 84.63
-120.24 -48.94 83.59
-120.24 -51.46 82.7
-120.29 -53.99 81.83
-120.1 -56.26 80.6
-120.22 -58.48 79.45
-120.33 -60.66 78.2
-120.24 -62.81 76.84
-120.26 -65.2 75.6
-120.18 -67.48 74.2
-120.23 -70.02 73.25
-120.52 -72.67 72.16
-120.81 -75.19 70.96
-121.18 -77.58 69.65
-121.52 -79.9 68.24
-121.92 -82.27 66.97
-125.25 83.17 83.41
-125.88 85.88 82.84
-124.6 80.45 83.94
-124.22 77.72 84.75
-123.94 75.09 85.93
-123.46 72.43 86.81
-122.93 69.71 87.46
-122.73 67.14 88.15
-122.59 64.64 89.06
-122.25 62 89.9
-121.95 59.4 90.9
-121.96 56.7 91.92
-121.73 53.8 92.2
-121.47 50.99 93.04
-121.27 48.22 94.07
-121.07 45.45 94.8
-120.88 42.69 95.58
-120.53 39.9 96.26
-120.06 37.06 96.59
-119.52 34.23 96.77
-119.19 31.45 97.53
-118.64 28.71 97.7
-118.07 25.97 97.81
-117.65 23.36 97.86
-117.2 20.75 97.82
-116.76 18.09 97.81
-116.45 15.42 98.16
-116.25 12.62 98.27
-115.94 9.82 98.09
-115.72 7.01 98.16
-115.43 4.19 98.08
-115.24 1.34 98.13
-115.02 -1.5 98.11
-115.03 -4.27 97.86
-115.05 -7.04 97.62
-115.01 -9.78 97.12
-114.91 -12.5 96.46
-114.83 -15.21 95.87
-114.79 -17.94 95.36
-114.95 -20.55 94.79
-115.09 -23.14 94.17
-115.09 -25.69 93.41
-115.09 -28.25 92.66
-115.19 -30.82 91.55
-115.34 -33.43 90.58
-115.56 -36.16 89.86
-115.65 -38.76 88.81
-115.73 -41.32 87.6
-115.89 -43.96 86.62
-115.94 -46.5 85.75
-115.97 -49.02 84.82
-116.06 -51.62 84.1
-116.16 -54.22 83.41
-116 -56.46 81.98
-115.78 -58.59 80.34
-115.73 -60.7 78.9
-115.82 -63.01 77.89
-115.91 -65.56 77.02
-115.85 -67.86 75.66
-116.07 -70.39 74.35
-116.45 -73.24 73.66
-116.73 -75.78 72.45
-116.87 -78.01 70.66
-117.13 -80.1 68.85
-117.46 -82.37 67.36
-120.93 83.58 83.84
-121.35 86.18 83.25
-120.43 80.92 84.76
-120.24 78.29 85.68
-119.85 75.73 86.84
-119.39 73.08 87.68
-118.97 70.39 88.56
-118.52 67.71 89.38
-118.27 65.1 89.93
-117.89 62.43 90.71
-117.77 59.68 91.68
-117.62 56.89 92.64
-117.53 54.11 93.38
-117.25 51.28 94.27
-116.99 48.44 95.07
-116.61 45.56 95.63
-116.37 42.76 96.18
-116.01 39.98 96.85
-115.62 37.17 97.41
-115.23 34.39 98.02
-114.97 31.62 98.96
-114.53 28.91 99.33
-113.9 26.15 99.26
-113.4 23.47 99.53
-113.04 20.85 99.72
-112.61 18.2 99.71
-112.34 15.45 99.77
-112.11 12.66 99.75
-111.7 9.9 99.43
-111.54 7.08 99.65
-111.31 4.26 99.65
-111.1 1.42 99.6
-110.91 -1.42 99.76
-110.84 -4.17 99.3
-110.76 -6.92 98.71
-110.8 -9.71 98.47
-110.76 -12.46 97.96
-110.67 -15.19 97.39
-110.65 -17.93 96.92
-110.56 -20.62 96.27
-110.66 -23.19 95.59
[...]
CELL_DATA 49152
SCALARS Temperature float 1
LOOKUP_TABLE default
263.454
249.442
62.6578
53.1663
249.799
219.258
66.395
41.4646
46.0792
36.6573
253.807
202.11
219.669
62.8316
192.331
132.885
202.53
277.958
196.911
249.402
26.1665
19.8203
17.506
16.9957
10.0439
8.01756
5.6791
3.37398
3.91524
5.29816
2.14966
2.47592
3.77337
1.10599
1.62433
1.51788
2.0033
2.36023
1.36801
1.28157
1.01897
1.86118
1.50596
2.06243
1.78334
0.704976
1.50521
1.19628
1.27463
0.147154
0.20607
0.179476
0.944362
0.0268181
0.0349722
0.0387071
0.00893117
0.0165185
0.0485352
0.00633012
0.00273313
0.00753408
0.00528053
0.00494707
0.0146389
0.0120127
0.000397635
0.00107172
0.000724319
0.000664889
0.000659488
0.000613572
0.000624552
0.000466228
0.000582085
0.000374415
0.000471648
0.000492432
9.6017e-05
0.000711692
0.000501994
0.000108391
0.000162717
0.000186642
0.000162666
0.000210749
0.000226035
0.000167474
0.000165079
0.000203733
0.000303278
7.39508e-05
0.000191273
8.13547e-05
4.12726e-05
9.96484e-05
9.97322e-05
2.76938e-05
3.61465e-05
2.67331e-05
3.24675e-05
1.26364e-05
1.61355e-05
1.04523e-05
9.75012e-06
7.21373e-06
5.24846e-06
3.43664e-06
3.72588e-06
4.58126e-06
5.42173e-06
6.94475e-06
5.04658e-06
6.96087e-06
3.62142e-06
1.09692e-06
1.35511e-06
1.53031e-06
2.03351e-06
1.42365e-06
7.04387e-07
9.66713e-07
1.38419e-06
1.47321e-06
1.54518e-06
1.66021e-06
5.61505e-08
6.07284e-08
275.537
281.338
246.546
65.7377
232.347
260.93
68.7017
72.7693
65.6692
54.2333
72.8696
262.837
280.546
223.953
261.657
187.739
63.5662
235.613
210.857
197.95
168.211
12.6676
7.34229
11.6219
4.97115
4.82434
10.1073
19.4284
21.3525
23.783
11.7422
10.9085
3.33749
4.31808
1.8798
2.37725
2.52394
0.830106
0.629282
0.50046
1.17839
2.1272
2.13076
2.04242
0.166391
0.0839249
0.30654
0.0454194
0.0214674
0.104269
0.103277
0.111133
0.0123631
0.0166758
0.0174307
0.0195999
0.0206774
0.0204098
0.0412707
0.0526864
0.0122264
0.0459295
0.0266769
0.00396626
0.00377981
0.00298103
0.000894438
0.000813911
0.000863027
0.000451443
0.000625341
0.000201995
0.000176384
0.000410686
0.000174428
0.000536317
0.000177674
0.000501957
0.000215118
0.000122582
0.000191838
0.000485452
0.000111182
0.000138547
0.000102272
0.000120375
0.000222579
0.000237882
0.000241736
0.000213297
0.000232386
0.000227309
6.71057e-05
0.000184584
5.06656e-05
3.99942e-05
3.25627e-05
2.77552e-05
2.89598e-05
3.17661e-05
2.92047e-05
1.51725e-05
1.47284e-05
7.58922e-06
7.44612e-06
7.26555e-06
5.98144e-06
5.72643e-06
5.52799e-06
4.87116e-06
6.75378e-06
3.46521e-06
7.40183e-06
5.65315e-06
1.37481e-06
1.41284e-06
1.67749e-06
1.44605e-06
1.43236e-06
1.27766e-06
1.305e-06
1.44281e-06
1.41639e-06
1.53296e-06
1.59341e-06
1.43793e-06
7.5616e-08
6.46153e-08
275.574
273.936
245.142
239.008
157.987
265.914
281.334
75.9056
239.72
75.2456
186.801
86.8154
83.5248
57.0847
105.03
263.966
164.786
58.9571
254.697
143.653
185.317
35.7456
30.1913
18.1364
7.68173
4.5086
17.578
19.5097
8.31513
7.51153
5.68786
3.91836
4.80405
5.07697
2.67324
2.96517
1.50415
5.77626
1.82865
1.09017
2.25687
0.506578
0.701546
0.635798
0.422219
0.0907438
0.0178356
0.0133409
0.0154467
0.0497759
0.0758917
0.0180005
0.0191006
0.0174373
0.0146661
0.0141163
0.0137368
0.0404043
0.0538072
0.067122
0.0561277
0.0371825
0.0326959
0.0125189
0.00128914
0.00192293
0.000873032
0.000406309
0.000716326
0.000697202
0.000266169
0.000415453
0.000134206
0.000114732
0.00011188
0.000126447
0.000119212
0.000115982
0.000127231
0.000116322
0.000103407
0.000182976
9.47824e-05
0.000134766
0.000176992
0.000109059
0.000206816
0.000261679
0.000186014
0.000213216
0.000189598
0.000186791
5.1964e-05
4.73918e-05
4.20648e-05
4.11986e-05
3.67378e-05
2.85204e-05
2.51609e-05
2.38585e-05
2.00602e-05
2.02895e-05
1.95462e-05
1.61718e-05
1.71972e-05
2.21527e-05
1.84921e-05
2.33662e-05
3.6158e-06
3.49962e-06
1.54955e-06
8.27559e-07
9.70709e-07
6.4116e-07
1.04581e-06
8.44864e-07
9.43274e-07
6.8613e-07
1.0917e-06
1.18313e-06
1.55241e-06
1.24603e-06
1.59192e-06
1.77013e-06
1.51201e-06
1.51275e-06
1.69755e-07
3.46536e-08
193.691
249.538
68.6868
229.555
90.5152
84.921
241.934
271.443
294.457
247.084
273.169
207.553
60.0294
28.5009
63.097
44.211
199.968
160.635
240.162
265.575
244.489
230.145
207.367
197.93
37.7789
34.6073
32.7363
22.2216
5.97257
4.96624
6.65506
8.72608
8.5467
3.12003
2.82529
10.2005
7.03245
6.31345
0.582931
0.469584
1.19831
1.67326
2.2389
4.01341
0.104684
0.0644268
0.0285791
0.0361119
0.0232292
0.0869592
0.0286129
0.025787
0.0705418
0.0208378
0.0141962
0.076572
0.0178778
0.0420733
0.0813619
0.0411291
0.0407006
0.0143641
0.0168969
0.014037
0.0772269
0.0051297
0.00492714
0.00166812
0.000444999
0.000594026
0.000153157
0.000108505
0.000133839
0.000124623
0.000140662
0.000140527
0.00012976
0.000132607
0.000136817
0.000122446
0.000500766
0.000415613
0.000345528
0.000300325
0.000132976
0.000127344
0.000231722
0.000144395
6.27121e-05
6.27915e-05
5.46704e-05
8.09707e-05
2.38254e-05
2.52445e-05
3.19564e-05
4.18742e-05
3.77944e-05
3.49759e-05
3.0298e-05
1.9556e-05
1.41249e-05
1.42294e-05
1.43557e-05
1.56687e-05
1.98295e-05
2.23612e-05
2.19971e-05
1.64966e-05
1.21387e-06
1.13717e-06
1.06185e-06
9.74005e-07
4.13634e-07
3.94703e-07
3.89982e-07
3.78147e-07
3.91635e-07
3.67798e-07
1.12367e-06
1.13946e-06
1.19726e-06
1.14594e-06
1.55123e-06
1.36725e-06
1.43715e-06
1.33969e-06
1.03995e-06
9.85966e-07
65.9047
24.6511
164.197
215.265
221.866
92.0647
244.789
221.411
217.985
295.863
227.736
301.34
275.623
139.971
206.984
69.9386
224.627
188.707
256.983
230.285
237.596
219.116
35.7929
29.2076
45.2378
42.794
36.8732
32.2005
34.4373
178.182
6.80886
9.17048
4.60838
7.71801
11.8834
10.2553
5.35181
18.6496
8.5288
2.625
11.8236
3.64589
3.47795
2.45196
1.1961
0.726822
0.0423465
0.0750113
0.0842939
0.0650674
0.0329871
0.112684
0.0819614
0.112188
0.104776
0.104281
0.057981
0.0303115
0.014427
0.0104492
0.0137092
0.0142341
0.0134099
0.0149678
0.0813601
0.0839929
0.0023198
0.00355983
0.00258797
0.000783694
0.000476289
0.00069089
0.000153017
0.000159418
0.000159392
0.000161455
0.000216761
0.000169575
0.0006737
0.000651843
0.000594557
0.000551725
0.000468599
0.000408958
0.000326445
0.000130119
3.72882e-05
8.25901e-05
5.21743e-05
6.39799e-05
5.6316e-05
5.05983e-05
5.11198e-05
3.21237e-05
2.71036e-05
4.19356e-05
1.66115e-05
2.87325e-05
2.62869e-05
2.72527e-05
2.54901e-05
2.38843e-05
2.26308e-05
2.22351e-05
2.44979e-05
1.95665e-06
3.46908e-06
2.21031e-06
1.80444e-06
6.5388e-07
3.63584e-07
9.0421e-07
6.68063e-07
6.15525e-07
5.08792e-07
3.81553e-07
3.68843e-07
1.08283e-06
1.12577e-06
1.03102e-06
1.13539e-06
8.51133e-07
9.43139e-07
5.27548e-07
9.19398e-07
5.58916e-07
6.20083e-07
5.97563e-07
184.589
75.9414
142.781
190.281
233.308
218.079
271.502
255.521
228.987
244.195
191.733
227.928
230.491
263.456
268.236
186.658
232.017
223.157
251.397
264.617
262.105
250.806
60.1911
55.272
38.8791
49.6001
31.3252
216.852
176.63
152.636
127.531
160.627
8.48053
12.5321
12.9479
21.3781
35.7439
27.8693
10.2575
7.76768
2.86005
0.413911
0.41959
0.292624
1.10091
0.148544
0.119088
0.101035
0.121238
0.111351
0.135979
0.14245
0.123555
0.114089
0.0236792
0.0973663
0.0431233
0.0323043
0.00832058
0.0134875
0.0117245
0.0099617
0.0123875
0.0105204
0.00446277
0.00797705
0.000769708
0
0.000111827
0.00119185
0.00110251
0.000372574
0.000139462
9.09133e-05
0.000224939
0.000214096
0.000453259
0.000520091
0.000491156
0.000601037
0.000556746
0.000536579
0.000482245
0.000451619
0.000379628
0.000260784
5.88041e-05
1.97763e-05
7.53627e-05
1.92457e-05
2.20432e-05
1.33028e-05
8.27056e-06
5.12203e-06
5.49368e-06
3.01919e-05
4.85761e-06
4.14759e-06
4.02763e-06
4.86394e-06
4.01632e-06
1.335e-05
1.53e-05
2.08656e-05
1.09322e-05
1.87181e-06
5.39842e-07
4.20412e-07
4.04079e-07
1.2945e-06
6.80226e-07
4.36927e-07
1.064e-06
1.37617e-06
5.43031e-07
5.2581e-07
1.14109e-06
8.49815e-07
1.06661e-06
1.28827e-06
8.49468e-07
8.27456e-07
3.19434e-07
2.3685e-07
2.21664e-07
4.48338e-07
4.87388e-07
5.88626e-07
240.913
227.618
269.503
170.459
256.823
224.508
267.319
270.051
230.606
236.798
237.646
152.846
207.86
201.716
149.901
260.908
233.952
247.599
261.891
267.467
260.805
275.461
244.386
65.3459
227.837
219.754
247.83
229.676
172.673
237.584
205.936
255.303
240.138
239.461
221.784
50.0998
65.0273
157.224
205.828
225.642
0.0982846
0.269405
0.304405
0.850373
0.971545
0.225515
0.110663
0.183782
0.125486
0.117387
0.14597
0.0967117
0.110315
0.0447891
0.0622446
0.0578217
0.0482374
0.0158521
0.00907725
0.00602389
0.00695242
0.010732
0.0129135
0.0777514
8.56744e-05
4.9037e-05
0.000263946
0.000554817
0.000251712
0.000341026
2.22953e-05
3.87886e-05
2.66815e-05
4.27331e-05
4.12862e-05
0.000144195
6.27133e-05
6.61805e-05
5.86919e-05
6.0479e-05
3.48771e-05
3.66034e-05
2.31852e-05
2.06719e-05
1.23447e-05
0.000152839
0.000161664
3.22947e-05
8.26179e-05
8.75386e-05
3.18639e-05
2.55687e-05
2.71687e-05
5.61083e-06
5.92532e-06
5.17359e-06
4.84446e-06
4.55353e-06
3.17984e-06
3.65564e-06
4.53352e-06
4.23539e-06
4.44344e-06
3.97596e-06
1.92373e-06
4.38103e-07
5.38748e-07
6.1392e-07
6.53976e-07
6.19795e-07
6.8743e-07
6.48646e-07
1.26269e-06
7.53548e-07
3.78626e-07
3.86101e-07
3.76644e-07
3.91095e-07
1.22312e-06
1.11224e-06
6.82103e-07
1.06172e-06
3.43286e-07
3.72952e-07
4.15801e-07
4.35513e-07
4.48764e-07
5.22772e-07
262.994
217.735
254.876
258.207
264.217
264.726
276.107
285.579
267.24
249.965
277.572
237.913
249.168
217.177
87.1922
189.03
247.23
210.645
214.158
255.566
238.289
258.008
240.783
233.271
247.025
243.506
199.594
243.407
165.752
212.2
230.964
210.49
228.106
248.647
177.853
198.67
177.208
50.1547
223.978
155.706
13.3967
10.232
5.79484
1.89105
1.637
0.794158
1.0914
0.765012
0.0279538
0.0498916
0.111548
0.0984519
0.0616465
0.0498409
0.0687223
0.0607812
0.0184702
0.013896
0.00733045
0.0110897
0.00800697
0.00143015
0.00756301
0.000606502
0.000437133
0.000590935
0.000226117
0.000195083
0.000144434
0.000200521
0.000110803
2.14729e-05
0.000115469
2.43155e-05
0.000123026
0.00019161
0.000537451
0.000147429
1.4745e-05
9.64855e-06
1.16303e-05
1.02242e-05
9.7563e-06
1.01805e-05
8.23898e-06
6.93347e-06
4.02936e-06
4.90261e-06
6.4245e-06
1.14328e-05
4.40855e-06
7.38789e-06
5.7801e-06
1.25961e-05
3.92975e-06
4.51583e-06
3.82844e-06
4.09074e-06
9.76104e-06
9.20567e-06
3.17149e-06
4.00603e-06
3.74534e-06
2.80656e-06
2.60988e-06
5.35806e-07
4.85339e-07
7.22488e-07
6.39549e-07
7.11426e-07
6.83212e-07
6.02758e-07
5.77751e-07
6.53245e-07
4.31066e-07
4.38505e-07
3.59633e-07
2.32576e-07
3.36996e-07
3.09902e-07
8.52143e-07
5.07437e-07
6.46977e-07
5.59777e-07
6.2511e-07
5.14545e-07
4.62264e-07
2.45895e-07
287.23
206.515
214.093
209.063
154.825
240.494
256.449
255.613
190.366
253.494
194.35
291.427
269.716
283.639
308.978
81.2816
262.767
231.27
137.876
218.056
193.398
239.106
228.082
236.933
249.626
243.803
226.973
174.915
41.083
68.129
59.5839
70.101
69.06
58.0652
56.5219
51.8368
54.3367
46.4333
32.4926
18.9971
17.4262
27.8388
1.55875
2.03554
1.10516
0.520897
0.817431
0.573054
0.501363
0.499264
0.340392
0.276124
0.0937526
0.0943587
0.0854678
0.0828355
0.016444
0.0751496
0.0205835
0.0903111
0.00509424
0.00142042
0.00014093
0.000218249
0.000106064
0.000111548
0.000181786
0.000128127
9.81068e-05
8.94326e-05
4.77527e-05
4.00251e-05
8.41847e-05
7.0999e-05
7.59616e-05
0.000123045
0.00484443
0.000276228
0.000278866
6.49192e-05
3.40551e-05
2.20173e-05
2.35885e-05
6.33056e-06
5.81107e-06
7.50362e-06
5.76419e-06
3.39425e-06
4.4204e-06
6.0299e-06
1.01195e-05
1.08907e-05
8.7279e-06
1.47826e-05
1.10906e-05
3.63427e-06
7.18182e-06
7.531e-06
7.40966e-06
8.90884e-06
8.57187e-06
3.1893e-06
1.00069e-06
1.21621e-06
2.98319e-07
1.21179e-07
1.28522e-07
3.59596e-07
4.75566e-07
4.26106e-07
4.80851e-07
2.37169e-07
2.24172e-07
3.58514e-07
3.30081e-07
2.70564e-07
2.16184e-07
2.43861e-07
1.87019e-07
1.64339e-07
1.85707e-07
1.94853e-07
3.8045e-07
4.52073e-07
5.28613e-07
6.44469e-07
5.77705e-07
6.85701e-07
271.85
302.295
275.166
268.623
267.885
232.401
256.112
283.96
286.621
212.483
243.342
97.475
227.194
199.195
251.653
284.128
261.579
256.272
189.803
251.095
76.1362
203.912
88.6428
78.5109
81.3942
57.292
54.4872
52.9151
51.231
48.8159
47.3794
46.0219
45.1651
41.8036
38.9091
41.2576
43.2894
13.2675
11.0644
11.844
23.6435
35.5649
19.3961
1.5873
0.757176
0.668453
0.497744
0.592296
0.439465
0.851604
0.513462
0.0461705
0.120774
0.150764
0.130707
0.117308
0.105931
0.122836
0.10562
0.769289
0.00360376
0.000530124
0.000904851
0.00104006
0.000184982
0.000152036
0.000258026
0.000205915
0.000216874
4.5943e-05
5.73075e-05
4.30252e-05
0.00013521
8.25631e-05
1.00894e-05
3.10332e-05
9.7258e-06
3.03655e-05
2.14367e-05
1.33787e-05
1.69208e-05
2.57561e-05
2.66757e-05
3.00482e-05
2.22436e-05
7.48821e-06
4.99593e-06
4.46207e-06
1.31359e-05
1.11602e-05
1.63588e-05
1.96991e-05
2.47932e-05
1.74286e-05
1.607e-05
1.48087e-05
1.50112e-05
1.42509e-05
1.47831e-05
1.47557e-05
1.43282e-05
1.16383e-05
8.99743e-06
1.14514e-06
6.46453e-07
6.56514e-07
5.897e-07
4.93304e-07
5.01619e-07
3.71059e-07
3.7927e-07
5.57969e-07
1.34847e-06
4.84299e-07
1.49903e-06
4.08654e-07
3.59164e-07
3.62201e-07
3.26237e-07
2.7991e-07
1.53833e-07
2.396e-07
2.23591e-07
6.73892e-07
2.88767e-06
1.00273e-06
2.78443e-06
1.05429e-06
284.033
295.759
300.096
280.748
287.16
269.347
306.022
242.833
279.283
261.795
259.591
216.225
224.259
253.082
225.764
215.862
210.571
221.795
244.354
254.051
223.401
209.708
65.1692
65.0914
65.8174
65.5482
61.5909
50.6766
47.598
41.0113
35.7647
42.5667
43.2785
19.1056
22.2807
19.5382
14.6425
14.6758
14.0324
13.6584
24.5648
13.8531
18.8613
18.9953
14.9032
1.41174
1.18089
4.6353
3.61025
0.174848
0.100178
0.202896
0.182168
0.235425
0.235883
0.371707
0.824173
0.935247
1.21879
1.10077
0.178625
0.151586
0.126348
0.0915456
0.0672159
0.0112764
0.0149404
0.000276839
0.000246838
0.000276669
0.000274152
0.00011553
3.30183e-05
5.87025e-05
2.20664e-05
0.000204645
4.87176e-06
6.68336e-06
5.23268e-06
3.67502e-06
1.3507e-05
1.54128e-05
1.52954e-05
2.70663e-05
2.47908e-05
2.10827e-05
1.97418e-05
1.28195e-05
2.40123e-05
1.9583e-05
2.29985e-05
2.30969e-05
2.28042e-05
2.37316e-05
2.25801e-05
2.34507e-05
2.2266e-05
1.22439e-05
1.19846e-05
1.11982e-05
1.08107e-05
1.02998e-05
9.76882e-06
5.90462e-06
5.4396e-07
5.22491e-07
4.95748e-07
5.16535e-07
5.13799e-07
5.1172e-07
4.8204e-07
4.89158e-07
4.53705e-07
4.62746e-07
4.33489e-07
4.37898e-07
4.04111e-07
3.86991e-07
3.47233e-07
3.28884e-07
3.60474e-07
2.30847e-07
4.72402e-07
5.29418e-07
2.34564e-06
3.41769e-06
3.98136e-06
2.83874e-06
268.714
288.726
249.252
248.759
229.061
249.146
282.084
283.945
229.992
284.64
276.902
268.358
291.99
302.998
236.809
247.318
240.097
256.891
257.641
248.893
219.674
139.702
178.902
195.526
85.2304
208.678
64.3999
76.7898
72.9397
66.5013
61.7834
51.1951
46.3038
37.5267
35.0477
15.6792
17.1142
14.5483
14.0003
13.1694
13.1534
17.4316
18.6263
16.9886
7.51441
10.2542
10.4589
9.68315
8.44202
20.4818
16.3335
11.2235
1.41848
1.47946
1.20963
1.07605
1.11957
1.46747
1.69324
1.21475
0.295587
0.427518
0.149123
0.0623848
0.0438713
0.0219945
0.0107054
0.0145281
0.0128931
0.000221067
0.000270828
4.53297e-05
1.31033e-05
1.76058e-05
2.07262e-05
2.62112e-05
1.51716e-05
1.24041e-05
9.67381e-06
3.6453e-06
1.07131e-05
1.31746e-05
1.28335e-05
1.29711e-05
1.08819e-05
1.18943e-05
1.71537e-06
2.02303e-05
1.99718e-05
2.21041e-05
2.159e-05
1.84918e-05
1.84889e-05
1.35759e-05
1.06636e-05
3.37347e-06
5.77817e-06
6.37872e-06
5.71391e-06
7.8357e-07
6.92762e-07
7.703e-06
6.90736e-06
4.92656e-06
5.98173e-07
5.84905e-07
3.65908e-07
7.62605e-07
3.8119e-07
4.07659e-07
3.7828e-07
3.99002e-07
3.67384e-07
3.95881e-07
3.73708e-07
3.84429e-07
3.5421e-07
3.18059e-07
3.03798e-07
2.00568e-07
2.52086e-07
3.31452e-07
3.90521e-07
5.99541e-07
6.86504e-07
1.72024e-06
5.00495e-06
5.66083e-06
305.437
303.906
274.119
289.484
233.21
262.113
262.166
246.6
208.003
209.986
248.458
248.257
304.203
292.544
274.975
275.191
295.952
301.963
275.425
256.969
217.635
238.99
226.666
270.848
229.942
273.136
80.6414
202.206
71.7749
69.027
58.3028
43.054
41.814
27.6359
26.2551
27.7356
27.1757
14.5363
15.5515
11.961
9.43714
15.3455
10.0199
25.1449
12.3915
29.2857
25.0792
31.3966
27.8223
18.2335
2.93439
7.88096
2.18998
2.80496
1.7633
2.28937
1.87742
1.91234
1.5732
0.47248
1.31823
1.46169
0.188879
1.38021
0.109325
0.90038
0.000722975
0.000250335
6.51003e-05
8.29556e-05
2.22124e-05
0.000173082
3.96651e-06
3.76183e-06
3.82536e-06
1.51781e-05
3.5574e-06
1.74012e-05
1.74879e-05
1.19438e-05
1.53299e-05
1.19881e-05
1.29847e-05
1.22734e-05
9.19212e-06
8.06849e-06
7.87248e-06
8.71475e-07
4.32687e-06
5.38869e-06
8.1771e-06
5.05029e-06
5.89245e-06
5.11209e-07
1.26579e-09
1.59711e-09
2.31462e-09
6.83786e-06
6.15027e-06
7.48082e-06
7.11175e-06
1.34056e-06
1.99378e-07
4.4841e-07
3.64414e-07
2.2e-07
2.18192e-07
2.37709e-07
2.3862e-07
4.05338e-07
3.88755e-07
3.24431e-07
2.95874e-07
3.19768e-07
3.02004e-07
2.88787e-07
2.82674e-07
2.99389e-07
2.8037e-07
2.58148e-07
2.98609e-07
2.89218e-07
3.36891e-07
5.28926e-07
6.40502e-07
7.55076e-07
9.10257e-07
5.6788e-06
316.965
323.542
304.671
314.426
288.786
289.742
258.111
262.964
220.491
246.016
228.915
242.632
254.515
241.83
236.042
231.277
288.945
220.624
272.74
281.316
263.837
285.371
293.549
292.739
320.622
324.005
283.957
279.671
22.068
16.1332
51.0557
47.3864
32.6192
26.6052
18.7825
21.3548
21.5411
25.5334
20.2438
31.0191
31.4781
30.2126
32.3535
31.7599
31.962
31.132
30.2653
24.0565
9.77708
13.7798
8.64053
12.6344
5.91128
4.41217
4.02286
0.605544
2.14458
2.19975
1.52887
0.621056
1.69351
0.212562
1.41669
0.424025
0.000494287
0.000472534
6.08874e-05
1.55488e-05
7.47081e-06
4.71034e-05
0.000124982
0.000162612
0.000108363
1.65733e-05
1.7026e-05
1.47323e-05
4.09388e-06
3.77787e-06
8.04375e-06
1.30647e-05
1.22422e-05
1.5545e-05
1.40502e-05
1.44191e-05
7.61146e-06
1.19827e-05
1.16111e-05
1.02619e-05
3.52718e-07
4.72334e-07
3.39179e-07
3.01182e-07
1.30439e-07
8.6631e-08
9.47441e-08
2.06174e-08
1.80847e-09
2.62738e-09
3.98261e-08
2.92178e-08
7.91465e-08
4.93901e-07
3.87365e-07
5.22265e-07
4.56927e-07
8.54142e-08
6.72439e-08
5.49893e-08
5.79699e-08
3.12995e-07
3.30068e-07
1.82356e-07
1.24871e-07
1.00138e-07
1.69589e-07
1.5237e-07
1.60413e-07
1.94647e-07
1.46545e-06
2.86531e-07
2.2863e-06
3.5739e-07
3.2307e-06
5.07995e-07
4.09852e-06
3.30552e-06
3.71861e-06
4.17993e-06
333.276
338.169
327.75
322.247
315.27
312.815
303.326
310.122
297.079
314.732
273.367
285.73
242.541
242.97
226.553
184.814
164.996
114.223
239.386
243.921
273.894
234.106
308.904
293.762
348.829
342.324
324.816
328.969
206.012
57.13
79.939
71.5364
45.5382
39.4684
22.7382
22.1645
38.4624
34.7958
36.1092
41.9976
37.3094
30.2367
33.6009
24.0021
32.1917
22.1515
29.5296
30.6881
16.7979
196.912
139.429
145.717
1.31812
0
0.253487
0.16921
0.870077
0.0323867
0.0675005
0.0216971
0.0238695
0.0229347
0.0331068
0
0.000771919
0.000668424
0.000102539
4.35773e-05
3.71037e-05
4.31788e-05
0.000101939
0.000158206
0.000113097
0.000173863
0.000181914
8.75141e-05
1.48057e-05
8.32422e-06
1.23159e-05
1.25417e-05
1.12245e-05
1.24269e-05
8.56871e-06
1.32876e-05
5.12319e-06
5.38425e-06
7.48356e-06
1.02645e-05
4.51791e-07
1.62729e-07
1.18845e-07
1.10941e-07
4.84808e-08
9.5291e-08
7.64798e-08
7.58933e-08
0
0
4.09476e-09
1.69088e-09
2.5272e-09
5.9971e-07
6.03698e-07
1.24995e-07
2.48007e-07
7.72649e-08
5.02146e-08
4.48008e-08
3.01227e-08
4.75439e-08
1.68234e-08
1.57056e-07
1.58434e-07
1.19706e-07
5.63156e-07
1.26729e-06
1.28974e-06
1.35234e-06
9.36757e-07
1.69832e-06
8.38667e-07
3.76582e-06
4.69043e-06
2.81171e-06
3.2387e-06
4.44691e-06
4.4526e-06
4.63409e-06
350.425
344.557
337.281
341.307
322.623
326.698
321.995
326.04
339.186
337.553
330.389
332.922
301.685
300.485
239.967
264.819
284.2
241.178
290.042
275.138
260.007
258.633
289.355
284.484
285.038
349.492
313.578
349.917
305.436
262.632
267.877
103.722
83.1605
265.819
209.659
223.097
56.5773
53.5821
45.8703
31.2637
36.6904
190.709
24.5048
104.674
23.1372
29.7577
33.6933
39.7915
219.89
170.358
220.938
198.735
17.8018
13.095
10.1955
4.9573
6.20574
7.04695
3.26465
0.853197
0.0648403
0.0610535
0.0331549
0.034906
0.0141977
0.00074403
0.00010542
0.00856268
1.07384e-09
2.07507e-07
3.26973e-07
3.45899e-07
4.56639e-07