# vtk DataFile Version 3.0
vtk output
ASCII
DATASET POLYDATA
POINTS 24578 float
-151.53 81.83 75.23
-146.76 79.98 77.9
-147.26 82.51 76.57
-151.22 79.35 76.36
-146.3 77.32 78.47
-150.76 76.75 77.01
-146.01 74.82 79.56
-150.4 74.19 77.98
-145.43 72.07 79.86
-149.95 71.56 78.66
-145.02 69.6 80.58
-149.55 69.11 79.46
-144.64 67.21 81.53
-149.14 66.64 80.2
-144.27 64.77 82.34
-148.68 64.12 80.8
-144.06 62.18 83.1
-148.26 61.63 81.51
-143.83 59.57 83.96
-148.2 59.14 82.73
-143.54 56.98 84.63
-148.02 56.58 83.6
-143.3 54.28 84.95
-147.52 53.77 83.62
-142.71 51.53 84.98
-147.03 50.98 83.68
-142.34 49.05 85.71
-146.66 48.52 84.06
-142.24 46.57 86.6
-146.26 46.05 84.34
-145.97 43.63 84.94
-141.82 44.09 87.11
-141.56 41.44 87.04
-145.67 41.21 85.5
-140.98 38.76 87.5
-145.29 38.66 85.7
-140.75 36.16 87.85
-144.89 36.1 85.85
-144.62 33.53 86.3
-140.46 33.57 88.45
-140.13 30.94 88.56
-144.22 30.94 86.41
-143.81 28.2 86.49
-139.84 28.2 88.9
-143.44 25.45 86.68
-139.6 25.51 89.44
-143.18 22.67 87.12
-139.22 22.78 89.44
-142.9 19.88 87.51
-138.79 20.04 89.71
-142.6 17.15 87.83
-138.39 17.32 89.75
-137.91 14.61 89.73
-142.25 14.42 88.03
-141.99 11.68 88.46
-137.6 11.89 89.94
-141.61 8.95 88.57
-137.22 9.16 90.05
-141.13 6.27 88.48
-136.86 6.45 90.3
-140.68 3.58 88.47
-136.37 3.76 90.16
-140.25 0.89 88.51
-135.88 1.07 90.03
-139.71 -1.79 88.26
-135.64 -1.76 90.02
-135.64 -4.55 89.75
-140 -4.44 88.09
-135.69 -7.09 89
-140.34 -7.12 88.03
-135.79 -9.62 88.23
-140.37 -9.69 87.25
-135.84 -12.19 87.54
-140.43 -12.27 86.54
-135.99 -14.75 87
-140.5 -14.79 85.8
-136.21 -17.35 86.64
-140.62 -17.33 85.19
-136.42 -19.93 86.21
-140.85 -19.94 84.82
-136.49 -22.42 85.34
-140.79 -22.34 83.7
-136.45 -24.91 84.43
-140.78 -24.79 82.73
-136.55 -27.44 83.74
-140.84 -27.3 81.99
-136.57 -29.97 82.98
-140.97 -29.86 81.42
-136.73 -32.54 82.43
-141.02 -32.36 80.63
-136.76 -35.12 81.64
-141.09 -34.97 79.94
-141.32 -37.69 79.69
-136.83 -37.72 80.96
-141.45 -40.33 79.13
-136.9 -40.34 80.32
-137.11 -43 79.41
-141.48 -42.91 78.35
-141.57 -45.38 77.61
-137.04 -45.54 78.64
-141.59 -47.8 76.7
-137.03 -47.91 77.56
-141.86 -50.43 76.49
-137.15 -50.39 76.9
-141.9 -52.84 75.63
-137.27 -52.84 76.11
-141.91 -55.11 74.4
-137.53 -55.19 75.26
-137.48 -57.49 74.21
-141.9 -57.35 73.07
-142.03 -59.74 72.14
-137.7 -59.92 73.43
-142.25 -62.22 71.44
-137.97 -62.48 72.92
-142.57 -64.67 70.67
-138.15 -65.14 72.4
-142.87 -67.1 69.86
-138.34 -67.41 71.12
-143.16 -69.56 69.09
-138.58 -69.8 70.17
-143.42 -71.97 68.22
-138.72 -72 68.84
-143.42 -74.03 66.78
-138.71 -74.17 67.59
-143.52 -76.26 65.69
-138.9 -76.5 66.65
-143.64 -78.59 64.8
-139.03 -78.91 65.88
-143.64 -80.66 63.43
-139.36 -81.09 64.3
-142.41 80.53 78.87
-142.88 83.09 77.59
-141.83 77.87 79.86
-141.49 75.33 80.8
-140.97 72.61 81.19
-140.47 70.13 81.77
-140.01 67.69 82.47
-139.94 65.21 83.59
-139.84 62.72 84.64
-139.44 60.04 85.13
-139.12 57.42 85.86
-138.88 54.8 86.42
-138.56 52.14 86.78
-138.19 49.56 87.25
-137.83 46.99 87.76
-137.58 44.31 88.01
-137.31 41.63 88.23
-137.03 38.95 89.21
-136.57 36.22 89.77
-136.22 33.57 90.06
-135.88 30.91 90.36
-135.74 28.24 91.1
-135.47 25.56 91.56
-134.94 22.88 91.41
-134.47 20.19 91.43
-134.08 17.49 91.57
-133.61 14.8 91.52
-133.09 12.1 91.2
-132.71 9.37 91.23
-132.3 6.67 91.32
-131.94 3.96 91.53
-131.76 1.11 91.67
-131.5 -1.71 91.62
-131.31 -4.41 90.89
-131.1 -7.09 90.13
-131.35 -9.7 89.79
-131.55 -12.29 89.33
-131.63 -14.81 88.62
-131.74 -17.34 87.96
-131.85 -19.85 87.19
-132.06 -22.42 86.66
-132.19 -25.02 86.17
-132.25 -27.57 85.48
-132.26 -30.09 84.65
-132.44 -32.72 84.26
-132.56 -35.36 83.72
-132.63 -37.97 83.04
-132.75 -40.58 81.94
-132.83 -43.16 80.72
-132.77 -45.71 79.94
-132.75 -48.3 79.25
-132.77 -50.64 78.12
-132.8 -52.99 77
-132.95 -55.32 76.2
-133.13 -57.69 75.53
-133.33 -60.11 74.69
-133.5 -62.48 73.72
-133.64 -65.09 73
-133.72 -67.59 72.04
-133.86 -69.81 70.74
-134.01 -72.03 69.43
-134.18 -74.44 68.63
-134.35 -76.86 67.84
-134.77 -79.33 66.76
-135.07 -81.54 65.2
-138.04 81.11 79.93
-138.51 83.66 78.64
-137.48 78.45 80.95
-136.81 75.7 81.58
-136.53 73.2 82.68
-136.2 70.85 83.66
-136.01 68.35 84.53
-135.78 65.76 85.17
-135.49 63.19 85.82
-135.19 60.56 86.38
-134.98 57.99 87.45
-134.76 55.37 88.25
-134.53 52.77 88.88
-134 50.11 89.1
-133.65 47.3 89.03
-133.3 44.56 89.42
-133.29 41.92 90.17
-132.89 39.2 91
-132.5 36.43 91.58
-132.05 33.68 92.21
-131.7 30.98 92.36
-131.44 28.31 92.66
-131.04 25.67 93.02
-130.62 23.02 93.01
-130.15 20.36 93.11
-129.82 17.66 93.35
-129.27 14.97 93.05
-128.74 12.27 92.73
-128.4 9.55 92.87
-127.96 6.85 92.86
-127.84 4 93.22
-127.59 1.17 93.17
-127.27 -1.64 92.97
-127.25 -4.36 92.57
-127.15 -7.08 92.07
-127.17 -9.83 91.83
-127.29 -12.38 91.16
-127.29 -14.86 90.23
-127.44 -17.42 89.6
-127.57 -19.97 88.96
-127.76 -22.53 88.35
-127.82 -25.1 87.72
-127.85 -27.64 86.95
-127.95 -30.27 86.46
-128.2 -32.95 86.24
-128.25 -35.54 85.49
-128.5 -38.26 84.8
-128.59 -40.83 83.55
-128.62 -43.36 82.3
-128.5 -45.86 81.36
-128.57 -48.51 80.64
-128.51 -50.96 79.6
-128.63 -53.39 78.68
-128.82 -55.89 78.24
-129.15 -58.39 77.85
-129.06 -60.46 76.29
-128.99 -62.4 74.44
-128.98 -64.79 73.19
-129.01 -67.15 71.96
-128.97 -69.58 70.84
-129.28 -72.05 69.98
-129.48 -74.55 69.36
-130.01 -77.21 68.65
-130.42 -79.71 67.63
-130.79 -82.03 66.21
-133.82 81.84 81.46
-134.36 84.47 80.38
-133.19 79.09 82.22
-132.49 76.28 82.7
-131.95 73.65 83.71
-131.93 71.29 85
-131.87 68.9 86.17
-131.5 66.27 86.57
-131.13 63.64 86.94
-130.87 61.02 87.58
-130.68 58.45 88.47
-130.46 55.86 89.34
-130.18 53.24 90.02
-129.88 50.44 90.31
-129.64 47.69 90.79
-129.42 44.94 91.36
-129.23 42.2 92.03
-128.71 39.37 92.41
-128.45 36.65 93.48
-128.03 33.86 94.03
-127.47 31.03 94.24
-127.19 28.41 94.71
-126.88 25.78 95.12
-126.32 23.16 94.88
-125.8 20.53 94.74
-125.36 17.84 94.64
-124.86 15.16 94.43
-124.49 12.44 94.52
-124.2 9.71 94.8
-123.95 6.88 94.78
-123.68 4.05 94.73
-123.4 1.23 94.62
-123.18 -1.6 94.69
-123.37 -4.41 94.84
-123.31 -7.12 94.32
-123.16 -9.79 93.63
-122.95 -12.42 92.76
-123.09 -14.99 92.12
-123.27 -17.57 91.56
-123.4 -20.13 90.9
-123.5 -22.66 90.14
-123.53 -25.22 89.42
-123.57 -27.78 88.7
-123.68 -30.42 88.22
-123.74 -33.02 87.62
-123.94 -35.69 86.77
-124.14 -38.36 85.91
-124.27 -40.96 84.88
-124.51 -43.67 84.17
-124.44 -46.18 83.04
-124.36 -48.68 81.9
-124.32 -51.14 80.87
-124.34 -53.66 80.01
-124.65 -56.22 79.72
-124.85 -58.64 79.12
-124.76 -60.62 77.46
-124.57 -62.46 75.52
-124.49 -64.69 73.94
-124.51 -67.1 72.74
-124.57 -69.65 71.8
-124.65 -72.26 70.99
-125.14 -74.86 70.13
-125.57 -77.36 69.04
-126.01 -79.84 67.96
-126.39 -82.16 66.58
-129.58 82.52 82.46
-130.23 85.32 82
-128.9 79.77 83.09
-128.4 77.11 83.84
-127.98 74.41 84.96
-127.56 71.77 85.9
-127.33 69.24 86.57
-127.15 66.76 87.43
-126.86 64.14 88.01
-126.52 61.49 88.81
-126.36 58.96 89.84
-126.14 56.38 90.8
-125.97 53.53 91.15
-125.51 50.64 91.5
-125.42 47.93 92.31
-125.22 45.19 93.14
-125.05 42.45 93.81
-124.64 39.66 94.38
-124.31 36.88 95.2
-123.77 34.05 95.42
-123.26 31.23 95.69
-122.78 28.52 96.11
-122.44 25.87 96.38
-121.98 23.27 96.26
-121.42 20.65 96.06
-121.04 17.96 96.08
-120.68 15.29 96.36
-120.38 12.57 96.56
-120.17 9.75 96.72
-119.91 6.93 96.66
-119.55 4.12 96.37
-119.27 1.3 96.28
-119.07 -1.54 96.32
-119.25 -4.36 96.51
-119.22 -7.1 96.08
-119.04 -9.77 95.31
-119 -12.5 94.8
-118.91 -15.21 94.19
-119.08 -17.79 93.59
-119.2 -20.38 92.98
-119.3 -22.91 92.18
-119.31 -25.47 91.43
-119.31 -28 90.63
-119.33 -30.55 89.87
-119.45 -33.15 88.84
-119.6 -35.8 87.91
-119.83 -38.5 87.17
-120.05 -41.2 86.43
-120.26 -43.87 85.57
-120.32 -46.42 84.63
-120.24 -48.94 83.59
-120.24 -51.46 82.7
-120.29 -53.99 81.83
-120.1 -56.26 80.6
-120.22 -58.48 79.45
-120.33 -60.66 78.2
-120.24 -62.81 76.84
-120.26 -65.2 75.6
-120.18 -67.48 74.2
-120.23 -70.02 73.25
-120.52 -72.67 72.16
-120.81 -75.19 70.96
-121.18 -77.58 69.65
-121.52 -79.9 68.24
-121.92 -82.27 66.97
-125.25 83.17 83.41
-125.88 85.88 82.84
-124.6 80.45 83.94
-124.22 77.72 84.75
-123.94 75.09 85.93
-123.46 72.43 86.81
-122.93 69.71 87.46
-122.73 67.14 88.15
-122.59 64.64 89.06
-122.25 62 89.9
-121.95 59.4 90.9
-121.96 56.7 91.92
-121.73 53.8 92.2
-121.47 50.99 93.04
-121.27 48.22 94.07
-121.07 45.45 94.8
-120.88 42.69 95.58
-120.53 39.9 96.26
-120.06 37.06 96.59
-119.52 34.23 96.77
-119.19 31.45 97.53
-118.64 28.71 97.7
-118.07 25.97 97.81
-117.65 23.36 97.86
-117.2 20.75 97.82
-116.76 18.09 97.81
-116.45 15.42 98.16
-116.25 12.62 98.27
-115.94 9.82 98.09
-115.72 7.01 98.16
-115.43 4.19 98.08
-115.24 1.34 98.13
-115.02 -1.5 98.11
-115.03 -4.27 97.86
-115.05 -7.04 97.62
-115.01 -9.78 97.12
-114.91 -12.5 96.46
-114.83 -15.21 95.87
-114.79 -17.94 95.36
-114.95 -20.55 94.79
-115.09 -23.14 94.17
-115.09 -25.69 93.41
-115.09 -28.25 92.66
-115.19 -30.82 91.55
-115.34 -33.43 90.58
-115.56 -36.16 89.86
-115.65 -38.76 88.81
-115.73 -41.32 87.6
-115.89 -43.96 86.62
-115.94 -46.5 85.75
-115.97 -49.02 84.82
-116.06 -51.62 84.1
-116.16 -54.22 83.41
-116 -56.46 81.98
-115.78 -58.59 80.34
-115.73 -60.7 78.9
-115.82 -63.01 77.89
-115.91 -65.56 77.02
-115.85 -67.86 75.66
-116.07 -70.39 74.35
-116.45 -73.24 73.66
-116.73 -75.78 72.45
-116.87 -78.01 70.66
-117.13 -80.1 68.85
-117.46 -82.37 67.36
-120.93 83.58 83.84
-121.35 86.18 83.25
-120.43 80.92 84.76
-120.24 78.29 85.68
-119.85 75.73 86.84
-119.39 73.08 87.68
-118.97 70.39 88.56
-118.52 67.71 89.38
-118.27 65.1 89.93
-117.89 62.43 90.71
-117.77 59.68 91.68
-117.62 56.89 92.64
-117.53 54.11 93.38
-117.25 51.28 94.27
-116.99 48.44 95.07
-116.61 45.56 95.63
-116.37 42.76 96.18
-116.01 39.98 96.85
-115.62 37.17 97.41
-115.23 34.39 98.02
-114.97 31.62 98.96
-114.53 28.91 99.33
-113.9 26.15 99.26
-113.4 23.47 99.53
-113.04 20.85 99.72
-112.61 18.2 99.71
-112.34 15.45 99.77
-112.11 12.66 99.75
-111.7 9.9 99.43
-111.54 7.08 99.65
-111.31 4.26 99.65
-111.1 1.42 99.6
-110.91 -1.42 99.76
-110.84 -4.17 99.3
-110.76 -6.92 98.71
-110.8 -9.71 98.47
-110.76 -12.46 97.96
-110.67 -15.19 97.39
-110.65 -17.93 96.92
-110.56 -20.62 96.27
-110.66 -23.19 95.59
[...]
CELL_DATA 49152
SCALARS Temperature float 1
LOOKUP_TABLE default
0.00194781
0.00182008
0.00747604
0.00145809
0.00188042
0.00195113
0.0090273
0.00865552
0.00847709
0.00868814
0.00797428
0.0149821
0.0074362
0.00601966
0.00210393
0.00235494
0.00236656
0.00505609
0.0229163
0.0251774
0.330977
0.406228
0.0915771
0.0411504
0.037075
0.134477
0.129725
0.232796
0.241261
0.224816
0.584302
0.15501
0.426038
0.661655
0.23818
0.578367
0.364735
2.84014
8.37794
6.3504
7.00289
9.76536
8.57761
11.6215
12.4212
12.8146
11.6632
12.0242
11.6358
12.0738
8.50042
1.8109
2.38534
1.8627
1.60168
1.64081
2.59877
9.43685
127.473
195.08
26.1019
191.78
223.526
49.3171
163.935
35.9905
265.368
85.4325
278.291
279.306
269.992
271.332
249.177
272.642
205.997
250.099
213.334
198.795
282.774
304.144
285.406
289.777
255.991
262.978
266.211
240.858
235.734
267.947
266.31
254.698
94.3518
262.492
243.971
258.907
281.263
276.764
274.576
279.841
293.432
309.453
173.475
276.406
296.88
288.384
324.582
288.738
309.916
325.031
292.725
272.485
262.179
224.941
261.862
222.238
261.925
316.053
268.558
292.206
284.376
329.481
339.686
325.845
313.653
296.629
293.587
278.588
331.29
333.646
0.0014418
0.00155353
0.00837988
0.0088627
0.00154108
0.00207244
0.0018705
0.00193731
0.00118381
0.001124
0.000828811
0.00119343
0.00120921
0.00835904
0.00513819
0.0088437
0.0156219
0.00926264
0.0124308
0.0138957
0.021029
0.0246305
0.0308439
0.141245
0.117203
0.063478
0.0592867
0.0527314
0.0306735
0.413572
0.0289418
0.307999
0.0188721
0.0567903
0.184947
0.189463
0.201807
1.00864
1.26898
1.11122
1.16596
4.84084
7.14433
7.04608
14.3264
11.4694
8.1376
7.6836
1.86585
8.19336
6.47068
6.11289
1.83256
1.53609
1.44556
2.1931
2.2541
2.39432
3.73259
1.90762
5.57476
11.3663
24.8314
17.8341
268.383
192.629
277.563
274.657
202.114
268.238
216.652
255.475
257.76
233.444
253.638
200.888
272.898
229.48
246.025
283.715
233.05
283.833
255.945
254.831
274.061
267.547
195.141
227.416
226.347
260.962
244.849
245.24
283.471
248.186
300.264
277.336
276.034
276.447
304.419
259.131
252.244
308.64
276.457
311.672
287.825
285.829
309.562
262.895
271.63
279.584
232.388
300.635
247.318
276.324
325.094
295.585
295.09
327.961
330.075
328.244
327.889
282.055
294.975
277.418
276.605
297.155
333.539
331.878
0.00117101
0.0012368
0.00777489
0.00787065
0.0106117
0.010122
0.00891756
0.00172694
0.00078043
0.00144934
0.00140133
0.00139943
0.0014884
0.00132281
0.00221818
0.00685638
0.0231459
0.023663
0.00666458
0.0038048
0.030337
0.0959037
0.11271
0.152442
0.153186
0.131331
0.105395
0.031757
0.0236504
0.0231923
0.025709
0.019242
0.0232782
0.15311
0.150491
0.160708
0.945622
5.12426
6.65068
6.67253
1.73208
0.833435
0.795139
1.00525
1.83285
9.53799
1.94979
1.41943
1.66233
1.86113
2.98786
2.33429
2.02438
1.35812
1.06368
0.834036
1.10004
1.14013
1.29351
1.33464
9.99038
3.03572
8.28382
192.424
219.46
267.227
234.352
268.182
129.666
129.902
243.216
205.061
283.418
261.449
246.989
252.717
248.47
263.6
237.079
224.549
248.988
226.491
270.159
261.548
229.693
272.904
189.192
89.2358
257.186
227.984
239.964
250.022
299.677
290.238
304.807
301.326
272.811
291.835
263.49
261.401
298.694
304.996
283.832
300.846
270.928
195.68
243.766
123.151
326.023
273.652
350.114
304.138
276.864
326.053
305.706
327.843
334.992
318.054
333.55
292.928
290.078
267.181
285.629
261.051
299.185
293.033
332.946
319.966
0.00150949
0.00141872
0.00741713
0.00526715
0.0110761
0.0108422
0.00800682
0.00322191
0.00346566
0.00205998
0.00277434
0.00212958
0.0103781
0.0105449
0.016671
0.0196745
0.0214944
0.0230464
0.00996918
0.0206631
0.0259072
0.025988
0.0294434
0.0295013
0.0361668
0.0361833
0.0328851
0.0555191
0.0589155
0.0496255
0.0441091
0.0514721
0.10973
0.0447315
0.0427707
0.164997
0.195631
0.165745
5.87373
0.593073
0.682402
0.790657
0.64032
5.77094
12.4293
2.56467
2.33413
2.19965
1.47002
2.0041
2.07374
2.28077
0.611531
1.12849
0.606779
1.2453
0.742121
0.939549
1.37186
3.28053
3.4002
4.71209
14.2096
22.7866
29.4717
191.379
221.685
222.046
253.113
143.136
281.109
254.188
248.769
281.997
224.742
236.776
242.336
240.276
257.999
236.226
259.594
248.664
260.854
266.356
218.397
220.963
83.6558
250.93
271.809
269.31
273.298
256.642
294.011
306.978
254.686
300.954
297.113
287.54
300.249
264.317
298.987
300.189
287.369
281.523
222.193
149.886
190.046
251.061
345.413
340.335
360.253
355.545
338.928
322.28
321.153
317.798
312.987
294.199
285.305
280.766
261.875
279.416
262.566
307.32
302.816
308.078
330.751
328.459
0.00975749
0.00631702
0.0110723
0.0108
0.0109323
0.0115882
0.00295589
0.00420932
0.00560231
0.00331565
0.0120513
0.0114733
0.0134946
0.0135736
0.0133408
0.0131245
0.0143927
0.0193754
0.0091635
0.00811635
0.00784993
0.00669499
0.0263993
0.0304771
0.035969
0.0360589
0.0134318
0.0119569
0.038156
0.0596522
0.0534005
0.0662233
0.0616673
0.12094
0.159278
0.122804
0.0966377
0.0397706
0.0478583
0.00206873
0.025106
0.00169461
0.0134808
0.098636
1.96221
2.4858
2.20345
2.2139
0.455113
0.679644
0.813312
0.474701
1.07367
2.30682
2.17809
4.44134
6.57448
15.8023
18.3224
7.29059
11.9965
13.6755
14.0293
13.9438
19.3275
20.439
217.343
233.661
270.61
262.447
232.054
277.85
242.251
235.691
226.47
219.83
232.913
239.387
259.587
255.878
258.855
255.041
266.194
256.327
262.109
221.928
286.584
252.904
282.514
275.284
262.792
273.719
260.184
286.366
266.878
251.984
285.175
300.542
294.496
300.639
278.977
291.093
273.086
272.144
110.068
323.277
261.909
323.022
329.622
349.833
333.115
358.462
313.071
331.549
322.17
309.242
286.897
287.566
273.23
290.875
268.382
307.423
298.952
319.916
303.198
331.611
330.033
321.722
0.0115271
0.01187
0.0118858
0.0117515
0.0108611
0.0110996
0.00631378
0.00730167
0.0104781
0.0102832
0.0127885
0.0126017
0.0130052
0.0127983
0.0130886
0.0130938
0.0124978
0.0123556
0.0116853
0.0172994
0.0205906
0.022075
0.0337185
0.0355131
0.0348319
0.0256079
0.00773658
0.00445005
0.0566938
0.0499324
0.0511045
0.0670235
0.0827334
0.128731
0.139067
0.0484415
0.039327
0.0504346
0.0578955
0.0155252
0.00929852
0.0107676
0.0121439
0.143741
0.187285
0.674862
0.538807
0.80122
0.594097
0.363023
0.431477
0.664403
0.875035
0.774088
4.30532
4.1952
7.75466
2.38309
8.97852
17.3487
15.5771
18.3487
20.2569
19.9854
16.7985
4.79873
170.693
220.609
233.147
269.659
252.949
232.121
246.267
248.964
231.56
235.901
230.843
238.845
239.032
261.395
261.706
260.081
260.601
265.879
286.957
265.06
277.705
282.772
243.646
266.877
281.11
249.915
299.904
262.548
287.431
277.76
285.652
289.995
290.708
299.548
286.508
262.034
280.052
254.136
326.998
318.571
341.494
316.687
336.477
325.906
333.756
303.445
315.916
280.148
321.662
324.348
287.234
310.206
292.415
237.515
294.665
294.962
334.805
313.37
344.434
327.485
318.541
335.227
0.0121481
0.0124225
0.0111357
0.0123688
0.0100058
0.0107124
0.00617838
0.00589978
0.0114071
0.0113884
0.0118294
0.0124544
0.0116683
0.0116981
0.0132779
0.012809
0.0145935
0.014513
0.0146798
0.0146182
0.0156261
0.026038
0.0328648
0.0341125
0.0321986
0.0331087
0.0334583
0.0439518
0.0478509
0.0508788
0.0547847
0.0574948
0.0590543
0.0647226
0.091725
0.0883621
0.0931703
0.0895822
0.0955101
0.0986869
0.00571518
0.0328526
0.187844
0.201605
0.130253
0.197119
1.90213
1.5849
2.2778
0.353859
0.647587
0.392997
0.472011
3.05489
1.38366
1.23772
0.294741
0.301838
8.52644
0.847643
4.10028
14.3614
15.0426
9.18094
225.818
171.86
249.373
182.651
180.147
236.813
238.028
258.097
246.496
248.878
227.312
234.266
256.474
239.314
257.957
249.612
273.065
272.184
259.67
269.3
275.342
292.32
277.638
278.571
243.867
246.076
301.61
289.984
317.331
305.548
289.05
286.233
283.553
282.78
293.224
289.557
266.603
275.981
264.306
280.391
314.172
329.901
335.376
341.358
317.149
329.201
306.869
297.446
279.335
313.595
324.945
324.983
323.597
315.196
259.084
273.751
310.273
275.915
348.931
343.344
349.793
347.824
330.495
345.087
0.0109518
0.0118249
0.0108169
0.0108464
0.0108217
0.0109329
0.0103251
0.00998745
0.0122273
0.0127508
0.0112037
0.0122858
0.0121569
0.0127089
0.0151266
0.0149773
0.0139382
0.0140224
0.014724
0.0148018
0.0162857
0.0163216
0.0176902
0.028723
0.0342327
0.0388654
0.0458925
0.0494669
0.0559221
0.0576718
0.0626142
0.0606808
0.0630059
0.0634348
0.0831058
0.0928601
0.0993083
0.101585
0.103763
0.119315
0.112017
0.118737
0.0862448
0.0232151
0.0228742
0.0222413
0.0253615
0.0240631
0.0189905
0.00811151
0.397653
0.345637
2.02478
1.65457
1.39963
0.456243
0.433564
0.386279
0.731146
12.5234
14.7539
21.4194
25.3281
203.908
200.557
234.372
222.957
249.96
200.765
170.325
222.872
237.372
198.805
244.232
120.707
218.031
245.9
250.243
295.387
256.932
278.205
272.096
274.123
261.427
275.645
277.988
286.558
284.864
273.123
258.259
304.396
308.538
305.077
318.293
283.329
285.895
283.996
280.729
294.289
291.146
285.349
273.808
276.281
296.877
296.268
311.105
314.439
332.503
302.909
313.198
323.307
308.323
323.214
311.909
320.635
322.356
339.491
326.108
271.593
330.648
293.347
338.493
360.557
333.615
356.443
318.093
342.184
308.519
0.00324167
0.00893294
0.00876266
0.00900614
0.0110389
0.00961877
0.00794817
0.00810212
0.0127146
0.0117497
0.014502
0.0129799
0.0144052
0.0149959
0.0130358
0.0157594
0.0126675
0.0131126
0.016139
0.0160096
0.0175566
0.0175426
0.0189276
0.0187146
0.0197055
0.0311593
0.0411256
0.046081
0.0521216
0.0452135
0.0499727
0.0441113
0.0485046
0.0553975
0.0692746
0.0819081
0.0959938
0.10865
0.0781017
0.0883469
0.0875072
0.0939052
0.0313324
0.150073
0.00975386
0.016809
0.0200836
0.0225505
0.0209798
0.0217916
0.0376527
0.0159546
1.912
1.22599
1.48962
1.41999
0.348311
0.970383
3.02676
12.1757
121.141
203.453
196.932
238.867
201.889
184.966
221.254
217.3
207.208
199.936
219.634
219.924
185.869
196.377
183.646
147.684
199.952
250.104
264.738
294.233
280.165
270.217
304.221
274.083
278.364
273.722
279.019
284.173
280.292
271.928
299.914
301.207
286.743
299.957
299.839
285.087
285.671
286.095
289.557
294.621
274.265
283.224
298.418
291.697
322.372
297.057
317.15
289.967
306.172
309.843
337.342
329.715
323.513
327.545
325.582
322.989
339.865
341.361
320.397
317.129
322.106
327.435
322.495
325.575
314.563
311.482
312.24
318.354
0.00840448
0.00249868
0.0101583
0.0110073
0.0110084
0.0120953
0.0114389
0.0104938
0.0106053
0.0129626
0.0123173
0.0137578
0.00374464
0.0128171
0.00387407
0.00809302
0.0125332
0.00208236
0.0170518
0.00548938
0.00511053
0.00568111
0.00674649
0.0148618
0.0108517
0.0209479
0.0193456
0.0200704
0.0448551
0.0521128
0.0614139
0.0624773
0.0669061
0.0735499
0.0986606
0.114937
0.121445
0.13906
0.125304
0.134995
0.133626
0.147621
0.126589
0.116632
0.126411
0.0886678
0.0258662
0.0244633
0.0230882
0.0235227
0.0186802
0.0503871
0.980813
0.932644
0.931817
0.201514
0.193586
0.219394
0.30305
0.391173
204.54
223.047
238.739
238.495
202.17
201.331
233.292
221.097
229.799
209.506
180.695
217.358
179.655
181.561
243.499
191.759
281.187
218.638
234.276
273.957
238.69
286.736
296.61
306.185
284.898
274.988
273.984
274.404
284.422
278.561
280.038
294.004
283.863
280.755
287.532
295.791
279.342
279.265
283.505
282.213
294.669
272.516
296.445
298.139
312.471
319.988
284.964
308.802
317.969
310.155
318.176
333.079
323.305
318.5
327.418
322.733
327.2
334.484
325.711
315.133
324.53
272.716
312.999
274.901
340.312
307.417
345.586
322.995
0.00960623
0.00916308
0.00179469
0.0103102
0.00187209
0.0111074
0.00228786
0.0112404
0.00245443
0.00246987
0.00231161
0.0031305
0.00300701
0.00385263
0.0039432
0.00355587
0.00353979
0.00393001
0.00425659
0.00454111
0.00471027
0.00392848
0.0181779
0.0178407
0.0213416
0.0196383
0.0201485
0.0214077
0.0203943
0.0545031
0.0786451
0.0747218
0.0822286
0.0968077
0.141574
0.167371
0.156724
0.173578
0.169888
0.182117
0.201408
0.203523
0.153384
0.159133
0.14227
0.0334396
0.0318965
0.137722
0.136382
0.128555
0.502633
3.89246
1.77223
2.32234
0.548624
1.68658
1.19024
1.59402
1.56134
6.13298
226.437
206.248
240.638
215.666
173.211
206.45
191.225
232.333
213.012
225.75
209.683
173.123
222.94
185.633
214.246
242.766
260.461
274.111
284.494
224.305
240.041
238.097
245.322
295.314
281.187
284.963
275.295
272.219
283.734
283.11
277.776
277.347
281.465
284.093
280.979
285.757
296.427
282.521
291.738
287.284
301.391
299.049
306.746
298.609
306.437
313.192
306.102
307.792
317.129
316.764
314.243
314.87
323.379
324.414
325.255
326.806
325.001
325
322.245
325.142
278.708
321.947
297.217
286.625
333.983
347.993
361.934
349.105
0.00199002
0.00225795
0.00229174
0.00236272
0.00233615
0.00217768
0.00225035
0.0024269
0.00222552
0.00201178
0.00148405
0.00148962
0.00219431
0.00309388
0.00246785
0.00307252
0.00310631
0.00387319
0.00403906
0.0033841
0.0100383
0.0233037
0.0247552
0.0257335
0.029298
0.0218622
0.0219628
0.0105601
0.00865037
0.0153834
0.0114858
0.0938961
0.0970416
0.128061
0.165628
0.19363
0.19502
0.214411
0.201251
0.20904
0.202358
0.182558
0.166616
0.175132
0.133288
0.171783
0.172291
0.162716
0.0814803
2.51826
2.29432
2.88175
2.97362
2.34529
2.57712
2.49489
2.40823
2.79661
2.68392
4.41435
207.909
39.9449
216.062
40.4138
38.2893
160.216
214.755
190.418
189.393
214.822
245.39
217.131
255.886
231.267
200.679
218.236
259.868
264.874
281.98
288.621
253.088
236.866
247.281
242.792
264.606
284.714
265.147
277.878
280.578
284.477
287.679
280.43
291.224
285.507
294.18
287.331
300.604
301.032
298.013
294.92
296.949
302.577
311.226
308.372
307.907
306.737
308.845
308.348
317.972
319.092
314.812
315.929
322.176
324.302
324.731
326.06
330.225
327.115
332.326
326.671
333.004
323.938
291.74
318.786
329.903
338.441
356.503
365.689
0.00144703
0.0013614
0.00166313
0.00198498
0.00224013
0.0025362
0.00266278
0.00249749
0.00251726
0.00258225
0.00228879
0.00233242
0.00283834
0.00196085
0.0015118
0.00146237
0.00206962
0.00257954
0.00218126
0.0151783
0.0208147
0.00435284
0.0214449
0.00783081
0.00630642
0.00902568
0.0913366
0.1222
0.100152
0.096466
0.471057
0.172491
0.157438
0.216123
0.229292
0.259267
0.233543
0.215141
0.226035
0.213973
0.162118
0.131872
0.171548
0.12956
0.19398
0.171294
0.278503
0.508857
1.20024
0.550069
1.32251
1.05495
1.78763
1.40494
1.74153
1.46703
1.72323
2.20198
2.92259
18.3714
24.4709
24.4449
27.0725
31.6746
146.484
30.1851
231.15
219.256
215.687
195.544
235.065
248.353
267.021
257.846
225.762
202.588
280.3
265.281
256.575
282.832
238.755
253.471
244.72
244.706
260.786
261.609
261.423
265.755
283.289
283.976
295.353
292.461
297.72
294.853
303.111
297.719
290.513
300.351
292.731
297.12
310.038
297.8
309.179
312.183
311.401
309.315
309.696
309.902
310.99
317.066
319.171
315.394
321.518
322.676
326.772
326.014
330.207
331.457
334.75
333.144
337.627
333.786
325.418
315.256
337.272
329.462
341.505
354.295
0.000677902
0.00119076
0.0011803
0.00182289
0.00185771
0.00186168
0.0020419
0.00211285
0.0024273
0.00273863
0.0027955
0.00293355
0.00301666
0.00279499
0.00254071
0.00243328
0.0028317
0.00294255
0.00256806
0.00192241
0.0024121
0.00312731
0.00414774
0.00370662
0.00498623
0.0110345
0.0267297
0.0157367
0.639975
0.309135
1.16539
0.973764
0.725634
0.334046
0.360016
0.346116
0.294753
0.279096
0.264919
0.23227
0.206496
0.184065
0.150223
0.118584
0.139919
0.170116
0.118085
0.19838
0.222734
0.335542
0.447876
0.519087
2.17947
9.66297
2.97482
15.4992
13.3059
16.2437
21.3926
21.4173
24.1883
19.653
23.1333
15.6419
215.052
166.86
210.187
233.118
185.173
213.666
223.404
230.257
191.27
256.789
232
210.425
288.539
273.797
254.384
245.569
256.332
237.186
251.893
247.126
273.717
264.67
260.954
264.827
299.316
289.026
300.776
301.379
291.873
300.919
287.275
302.142
296.003
289.74
302.261
294.785
304.027
311.169
303.668
307.271
322.67
313.071
310.254
310.769
303.058
310.125
325.919
321.465
325.081
323.127
330.594
329.027
330.397
331.761
330.494
335.194
333.282
336.475
330.445
324.545
336.906
334.465
335.198
336.149
0.000704788
0.00104383
0.00116069
0.000502676
0.000171246
0.000234053
0.00045697
0.000328961
0.000592184
0.00191384
0.00205701
0.0026749
0.00275759
0.00275048
0.00288598
0.00275224
0.00264999
0.00256369
0.0018523
0.0023679
0.00281975
0.00205478
0.00166564
0.000797526
0.00211252
0.000799866
0.000804268
0.000662103
0.989918
1.1159
1.27558
1.28425
0.695628
0.207669
0.381314
0.353406
0.125467
0.278981
0.242727
0.202943
0.205601
0.230895
0.149202
0.218393
0.175708
0.213478
0.196377
0.218645
0.25721
0.26645
0.294883
0.288138
0.176787
0
210.124
13.0866
8.03982
5.36869
160.81
171.919
137.264
136.372
15.174
148.401
187.434
215.17
36.3022
200.044
204.09
177.984
208.395
220.815
149.779
184.428
265.857
243.823
285.718
292.128
252.03
255.081
260.516
256.289
265.636
251.432
273.12
272.67
268.099
259.587
291.349
297.665
301.244
297.951
297.27
290.017
274.566
285.213
298.226
297.332
306.252
303.189
283.168
299.806
318.083
305.161
329.755
325.709
310.272
310.83
314.358
306.251
318.567
327.604
328.921
326.26
329.577
330.844
330.104
330.19
328.288
330.125
325.324
332.237
339.318
332.854
333.027
336.301
333.412
333.621
0.000683991
0.00222786
0.00345646
0.0023813
0.000919358
0.000146422
8.14625e-05
0.000121919
0.000245739
0.000606703
0.000415138
0.000626538
0
0
0.00192095
0.00185522
0.000888879
0.00158615
0.000894935
0.00112588
0.00118254
0.00116722
0.00060644
0.00093202
0.00102689
0.00114089
0.00227582
0.0024106
0.00372744
0.831901
0.0540415
0.106087
0.211385
0.27417
0.287228
0.273705
0.103153
0.0575165
0.126145
0.241176
0.231501
0.251501
0.220526
0.222815
0.212754
0.199678
0.197709
0.178943
0.210938
0.157561
0.493016
0.972649
1.82259
1.154
181.283
130.309
20.6723
2.23022
174.642
1.23778
138.12
9.27726
153.135
13.447
17.4903
186.815
25.5724
64.7895
205.741
210.667
216.976
212.025
210.337
173.729
190.458
264.362
277.328
280.747
292.734
256.398
264.763
264.831
272.191
269.645
265.913
273.044
218.711
260.973
271.436
282.1
315.331
298.916
294.36
293.943
301.901
275.377
296.577
299.533
303.63
306.833
306.658
288.268
316.702
323.051
317.04
328.706
309.311
307.981
320.574
314.116
322.999
317.844
323.242
328.976
328.364
328.757
333.746
330.68
333.007
329.91
329.4
327.967
338.915
342.482
338.67
335.274
336.251
337.024
0.00091923
0.00188637
0.00413958
0.00253803
0.00205217
0.00127617
0.0017089
0.00171611
0.00191329
0.00526073
0.00527418
0.00453129
0.00515682
0.00337423
0.0019515
0.00139057
0.000299049
0.000918058
0.000761575
0.000932231
0.001061
0.000908414
0.00124499
0.00082833
0.00191845
0.00142969
0.00215199
0.00190003
0.0866442
0.112493
0.128685
0.139573
0.141147
0.184559
0.159337
0.176553
0.196266
0.140642
0.219692
0.246406
0.239576
0.231869
0.213069
0.192127
0.190004
0.180222
0.171449
0.174607
0.16815
0.170057
0.184359
0.170123
0.228961
2.11245
2.37369
2.5953
2.66752
1.99383
15.0983
16.0073
2.02339
14.5238
153.189
144.611
168.337
26.2733
206.964
41.5642
182.053
218.308
218.308
227.335
219.761
221.174
193.962
198.61
266.598
284.434
304.913
300.216
268.771
268.082
262.743
273.336
265.424
266.489
215.357
221.609
298.403
282.186
324.203
323.489
283.328
297.944
302.95
304.665
304.003
296.394
302.56
303.758
310.981
308.064
316.377
314.839
308.501
315.234
319.926
312.517
325.873
323.646
324.007
324.358
318.284
322.326
329.492
329.185
332.893
334.209
338.243
333.874
335.623
330.724
330.442
337.725
338.987
338.66
343.368
337.155
0.000676912
0.00103201
0.00113236
0.00137995
0.00136006
0.00120836
0.00139514
0.00151371
0.00135669
0.00119721
0.0014217
0.00134863
0.00155806
0.0014382
0.00155951
0.00119741
0.000335865
0.000963745
0.000624031
0.000765388
0.0654961
0.000983229
0.0801896
0.00139131
0.0864707
0.0733206
0.102633
0.11714
0.128375
0.14683
0.151912
0.149155
0.154514
0.169567
0.196465
0.205737
0.224977
0.224894
0.230065
0.20807
0.215618
0.197991
0.180109
0.204551
0.183049
0.183836
0.178994
0.139168
0.164697
1.40889
1.03624
1.37316
2.10334
1.66278
2.54058
11.3637
13.6366
14.5277
15.6237
13.1095
13.1179
12.067
146.297
139.284
180.214
171.672
221.982
207.075
229.914
181.215
221.559
221.618
205.294
222.359
258.413
208.89
249.984
270.213
270.447
304.524
266.522
266.902
275.592
262.989
278.836
269.561
224.626
223.192
300.108
301.636
311.998
322.837
286.199
281.531
308.599
305.105
296.84
304.626
307.334
302.681
309.963
311.067
315.216
315.729
310.294
307.974
308.104
318.541
329.392
324.407
325.2
322.544
320.062
317.543
329.313
329.728
332.763
332.974
336.342
338.143