# vtk DataFile Version 3.0
vtk output
ASCII
DATASET POLYDATA
POINTS 24578 float
-151.53 81.83 75.23
-146.76 79.98 77.9
-147.26 82.51 76.57
-151.22 79.35 76.36
-146.3 77.32 78.47
-150.76 76.75 77.01
-146.01 74.82 79.56
-150.4 74.19 77.98
-145.43 72.07 79.86
-149.95 71.56 78.66
-145.02 69.6 80.58
-149.55 69.11 79.46
-144.64 67.21 81.53
-149.14 66.64 80.2
-144.27 64.77 82.34
-148.68 64.12 80.8
-144.06 62.18 83.1
-148.26 61.63 81.51
-143.83 59.57 83.96
-148.2 59.14 82.73
-143.54 56.98 84.63
-148.02 56.58 83.6
-143.3 54.28 84.95
-147.52 53.77 83.62
-142.71 51.53 84.98
-147.03 50.98 83.68
-142.34 49.05 85.71
-146.66 48.52 84.06
-142.24 46.57 86.6
-146.26 46.05 84.34
-145.97 43.63 84.94
-141.82 44.09 87.11
-141.56 41.44 87.04
-145.67 41.21 85.5
-140.98 38.76 87.5
-145.29 38.66 85.7
-140.75 36.16 87.85
-144.89 36.1 85.85
-144.62 33.53 86.3
-140.46 33.57 88.45
-140.13 30.94 88.56
-144.22 30.94 86.41
-143.81 28.2 86.49
-139.84 28.2 88.9
-143.44 25.45 86.68
-139.6 25.51 89.44
-143.18 22.67 87.12
-139.22 22.78 89.44
-142.9 19.88 87.51
-138.79 20.04 89.71
-142.6 17.15 87.83
-138.39 17.32 89.75
-137.91 14.61 89.73
-142.25 14.42 88.03
-141.99 11.68 88.46
-137.6 11.89 89.94
-141.61 8.95 88.57
-137.22 9.16 90.05
-141.13 6.27 88.48
-136.86 6.45 90.3
-140.68 3.58 88.47
-136.37 3.76 90.16
-140.25 0.89 88.51
-135.88 1.07 90.03
-139.71 -1.79 88.26
-135.64 -1.76 90.02
-135.64 -4.55 89.75
-140 -4.44 88.09
-135.69 -7.09 89
-140.34 -7.12 88.03
-135.79 -9.62 88.23
-140.37 -9.69 87.25
-135.84 -12.19 87.54
-140.43 -12.27 86.54
-135.99 -14.75 87
-140.5 -14.79 85.8
-136.21 -17.35 86.64
-140.62 -17.33 85.19
-136.42 -19.93 86.21
-140.85 -19.94 84.82
-136.49 -22.42 85.34
-140.79 -22.34 83.7
-136.45 -24.91 84.43
-140.78 -24.79 82.73
-136.55 -27.44 83.74
-140.84 -27.3 81.99
-136.57 -29.97 82.98
-140.97 -29.86 81.42
-136.73 -32.54 82.43
-141.02 -32.36 80.63
-136.76 -35.12 81.64
-141.09 -34.97 79.94
-141.32 -37.69 79.69
-136.83 -37.72 80.96
-141.45 -40.33 79.13
-136.9 -40.34 80.32
-137.11 -43 79.41
-141.48 -42.91 78.35
-141.57 -45.38 77.61
-137.04 -45.54 78.64
-141.59 -47.8 76.7
-137.03 -47.91 77.56
-141.86 -50.43 76.49
-137.15 -50.39 76.9
-141.9 -52.84 75.63
-137.27 -52.84 76.11
-141.91 -55.11 74.4
-137.53 -55.19 75.26
-137.48 -57.49 74.21
-141.9 -57.35 73.07
-142.03 -59.74 72.14
-137.7 -59.92 73.43
-142.25 -62.22 71.44
-137.97 -62.48 72.92
-142.57 -64.67 70.67
-138.15 -65.14 72.4
-142.87 -67.1 69.86
-138.34 -67.41 71.12
-143.16 -69.56 69.09
-138.58 -69.8 70.17
-143.42 -71.97 68.22
-138.72 -72 68.84
-143.42 -74.03 66.78
-138.71 -74.17 67.59
-143.52 -76.26 65.69
-138.9 -76.5 66.65
-143.64 -78.59 64.8
-139.03 -78.91 65.88
-143.64 -80.66 63.43
-139.36 -81.09 64.3
-142.41 80.53 78.87
-142.88 83.09 77.59
-141.83 77.87 79.86
-141.49 75.33 80.8
-140.97 72.61 81.19
-140.47 70.13 81.77
-140.01 67.69 82.47
-139.94 65.21 83.59
-139.84 62.72 84.64
-139.44 60.04 85.13
-139.12 57.42 85.86
-138.88 54.8 86.42
-138.56 52.14 86.78
-138.19 49.56 87.25
-137.83 46.99 87.76
-137.58 44.31 88.01
-137.31 41.63 88.23
-137.03 38.95 89.21
-136.57 36.22 89.77
-136.22 33.57 90.06
-135.88 30.91 90.36
-135.74 28.24 91.1
-135.47 25.56 91.56
-134.94 22.88 91.41
-134.47 20.19 91.43
-134.08 17.49 91.57
-133.61 14.8 91.52
-133.09 12.1 91.2
-132.71 9.37 91.23
-132.3 6.67 91.32
-131.94 3.96 91.53
-131.76 1.11 91.67
-131.5 -1.71 91.62
-131.31 -4.41 90.89
-131.1 -7.09 90.13
-131.35 -9.7 89.79
-131.55 -12.29 89.33
-131.63 -14.81 88.62
-131.74 -17.34 87.96
-131.85 -19.85 87.19
-132.06 -22.42 86.66
-132.19 -25.02 86.17
-132.25 -27.57 85.48
-132.26 -30.09 84.65
-132.44 -32.72 84.26
-132.56 -35.36 83.72
-132.63 -37.97 83.04
-132.75 -40.58 81.94
-132.83 -43.16 80.72
-132.77 -45.71 79.94
-132.75 -48.3 79.25
-132.77 -50.64 78.12
-132.8 -52.99 77
-132.95 -55.32 76.2
-133.13 -57.69 75.53
-133.33 -60.11 74.69
-133.5 -62.48 73.72
-133.64 -65.09 73
-133.72 -67.59 72.04
-133.86 -69.81 70.74
-134.01 -72.03 69.43
-134.18 -74.44 68.63
-134.35 -76.86 67.84
-134.77 -79.33 66.76
-135.07 -81.54 65.2
-138.04 81.11 79.93
-138.51 83.66 78.64
-137.48 78.45 80.95
-136.81 75.7 81.58
-136.53 73.2 82.68
-136.2 70.85 83.66
-136.01 68.35 84.53
-135.78 65.76 85.17
-135.49 63.19 85.82
-135.19 60.56 86.38
-134.98 57.99 87.45
-134.76 55.37 88.25
-134.53 52.77 88.88
-134 50.11 89.1
-133.65 47.3 89.03
-133.3 44.56 89.42
-133.29 41.92 90.17
-132.89 39.2 91
-132.5 36.43 91.58
-132.05 33.68 92.21
-131.7 30.98 92.36
-131.44 28.31 92.66
-131.04 25.67 93.02
-130.62 23.02 93.01
-130.15 20.36 93.11
-129.82 17.66 93.35
-129.27 14.97 93.05
-128.74 12.27 92.73
-128.4 9.55 92.87
-127.96 6.85 92.86
-127.84 4 93.22
-127.59 1.17 93.17
-127.27 -1.64 92.97
-127.25 -4.36 92.57
-127.15 -7.08 92.07
-127.17 -9.83 91.83
-127.29 -12.38 91.16
-127.29 -14.86 90.23
-127.44 -17.42 89.6
-127.57 -19.97 88.96
-127.76 -22.53 88.35
-127.82 -25.1 87.72
-127.85 -27.64 86.95
-127.95 -30.27 86.46
-128.2 -32.95 86.24
-128.25 -35.54 85.49
-128.5 -38.26 84.8
-128.59 -40.83 83.55
-128.62 -43.36 82.3
-128.5 -45.86 81.36
-128.57 -48.51 80.64
-128.51 -50.96 79.6
-128.63 -53.39 78.68
-128.82 -55.89 78.24
-129.15 -58.39 77.85
-129.06 -60.46 76.29
-128.99 -62.4 74.44
-128.98 -64.79 73.19
-129.01 -67.15 71.96
-128.97 -69.58 70.84
-129.28 -72.05 69.98
-129.48 -74.55 69.36
-130.01 -77.21 68.65
-130.42 -79.71 67.63
-130.79 -82.03 66.21
-133.82 81.84 81.46
-134.36 84.47 80.38
-133.19 79.09 82.22
-132.49 76.28 82.7
-131.95 73.65 83.71
-131.93 71.29 85
-131.87 68.9 86.17
-131.5 66.27 86.57
-131.13 63.64 86.94
-130.87 61.02 87.58
-130.68 58.45 88.47
-130.46 55.86 89.34
-130.18 53.24 90.02
-129.88 50.44 90.31
-129.64 47.69 90.79
-129.42 44.94 91.36
-129.23 42.2 92.03
-128.71 39.37 92.41
-128.45 36.65 93.48
-128.03 33.86 94.03
-127.47 31.03 94.24
-127.19 28.41 94.71
-126.88 25.78 95.12
-126.32 23.16 94.88
-125.8 20.53 94.74
-125.36 17.84 94.64
-124.86 15.16 94.43
-124.49 12.44 94.52
-124.2 9.71 94.8
-123.95 6.88 94.78
-123.68 4.05 94.73
-123.4 1.23 94.62
-123.18 -1.6 94.69
-123.37 -4.41 94.84
-123.31 -7.12 94.32
-123.16 -9.79 93.63
-122.95 -12.42 92.76
-123.09 -14.99 92.12
-123.27 -17.57 91.56
-123.4 -20.13 90.9
-123.5 -22.66 90.14
-123.53 -25.22 89.42
-123.57 -27.78 88.7
-123.68 -30.42 88.22
-123.74 -33.02 87.62
-123.94 -35.69 86.77
-124.14 -38.36 85.91
-124.27 -40.96 84.88
-124.51 -43.67 84.17
-124.44 -46.18 83.04
-124.36 -48.68 81.9
-124.32 -51.14 80.87
-124.34 -53.66 80.01
-124.65 -56.22 79.72
-124.85 -58.64 79.12
-124.76 -60.62 77.46
-124.57 -62.46 75.52
-124.49 -64.69 73.94
-124.51 -67.1 72.74
-124.57 -69.65 71.8
-124.65 -72.26 70.99
-125.14 -74.86 70.13
-125.57 -77.36 69.04
-126.01 -79.84 67.96
-126.39 -82.16 66.58
-129.58 82.52 82.46
-130.23 85.32 82
-128.9 79.77 83.09
-128.4 77.11 83.84
-127.98 74.41 84.96
-127.56 71.77 85.9
-127.33 69.24 86.57
-127.15 66.76 87.43
-126.86 64.14 88.01
-126.52 61.49 88.81
-126.36 58.96 89.84
-126.14 56.38 90.8
-125.97 53.53 91.15
-125.51 50.64 91.5
-125.42 47.93 92.31
-125.22 45.19 93.14
-125.05 42.45 93.81
-124.64 39.66 94.38
-124.31 36.88 95.2
-123.77 34.05 95.42
-123.26 31.23 95.69
-122.78 28.52 96.11
-122.44 25.87 96.38
-121.98 23.27 96.26
-121.42 20.65 96.06
-121.04 17.96 96.08
-120.68 15.29 96.36
-120.38 12.57 96.56
-120.17 9.75 96.72
-119.91 6.93 96.66
-119.55 4.12 96.37
-119.27 1.3 96.28
-119.07 -1.54 96.32
-119.25 -4.36 96.51
-119.22 -7.1 96.08
-119.04 -9.77 95.31
-119 -12.5 94.8
-118.91 -15.21 94.19
-119.08 -17.79 93.59
-119.2 -20.38 92.98
-119.3 -22.91 92.18
-119.31 -25.47 91.43
-119.31 -28 90.63
-119.33 -30.55 89.87
-119.45 -33.15 88.84
-119.6 -35.8 87.91
-119.83 -38.5 87.17
-120.05 -41.2 86.43
-120.26 -43.87 85.57
-120.32 -46.42 84.63
-120.24 -48.94 83.59
-120.24 -51.46 82.7
-120.29 -53.99 81.83
-120.1 -56.26 80.6
-120.22 -58.48 79.45
-120.33 -60.66 78.2
-120.24 -62.81 76.84
-120.26 -65.2 75.6
-120.18 -67.48 74.2
-120.23 -70.02 73.25
-120.52 -72.67 72.16
-120.81 -75.19 70.96
-121.18 -77.58 69.65
-121.52 -79.9 68.24
-121.92 -82.27 66.97
-125.25 83.17 83.41
-125.88 85.88 82.84
-124.6 80.45 83.94
-124.22 77.72 84.75
-123.94 75.09 85.93
-123.46 72.43 86.81
-122.93 69.71 87.46
-122.73 67.14 88.15
-122.59 64.64 89.06
-122.25 62 89.9
-121.95 59.4 90.9
-121.96 56.7 91.92
-121.73 53.8 92.2
-121.47 50.99 93.04
-121.27 48.22 94.07
-121.07 45.45 94.8
-120.88 42.69 95.58
-120.53 39.9 96.26
-120.06 37.06 96.59
-119.52 34.23 96.77
-119.19 31.45 97.53
-118.64 28.71 97.7
-118.07 25.97 97.81
-117.65 23.36 97.86
-117.2 20.75 97.82
-116.76 18.09 97.81
-116.45 15.42 98.16
-116.25 12.62 98.27
-115.94 9.82 98.09
-115.72 7.01 98.16
-115.43 4.19 98.08
-115.24 1.34 98.13
-115.02 -1.5 98.11
-115.03 -4.27 97.86
-115.05 -7.04 97.62
-115.01 -9.78 97.12
-114.91 -12.5 96.46
-114.83 -15.21 95.87
-114.79 -17.94 95.36
-114.95 -20.55 94.79
-115.09 -23.14 94.17
-115.09 -25.69 93.41
-115.09 -28.25 92.66
-115.19 -30.82 91.55
-115.34 -33.43 90.58
-115.56 -36.16 89.86
-115.65 -38.76 88.81
-115.73 -41.32 87.6
-115.89 -43.96 86.62
-115.94 -46.5 85.75
-115.97 -49.02 84.82
-116.06 -51.62 84.1
-116.16 -54.22 83.41
-116 -56.46 81.98
-115.78 -58.59 80.34
-115.73 -60.7 78.9
-115.82 -63.01 77.89
-115.91 -65.56 77.02
-115.85 -67.86 75.66
-116.07 -70.39 74.35
-116.45 -73.24 73.66
-116.73 -75.78 72.45
-116.87 -78.01 70.66
-117.13 -80.1 68.85
-117.46 -82.37 67.36
-120.93 83.58 83.84
-121.35 86.18 83.25
-120.43 80.92 84.76
-120.24 78.29 85.68
-119.85 75.73 86.84
-119.39 73.08 87.68
-118.97 70.39 88.56
-118.52 67.71 89.38
-118.27 65.1 89.93
-117.89 62.43 90.71
-117.77 59.68 91.68
-117.62 56.89 92.64
-117.53 54.11 93.38
-117.25 51.28 94.27
-116.99 48.44 95.07
-116.61 45.56 95.63
-116.37 42.76 96.18
-116.01 39.98 96.85
-115.62 37.17 97.41
-115.23 34.39 98.02
-114.97 31.62 98.96
-114.53 28.91 99.33
-113.9 26.15 99.26
-113.4 23.47 99.53
-113.04 20.85 99.72
-112.61 18.2 99.71
-112.34 15.45 99.77
-112.11 12.66 99.75
-111.7 9.9 99.43
-111.54 7.08 99.65
-111.31 4.26 99.65
-111.1 1.42 99.6
-110.91 -1.42 99.76
-110.84 -4.17 99.3
-110.76 -6.92 98.71
-110.8 -9.71 98.47
-110.76 -12.46 97.96
-110.67 -15.19 97.39
-110.65 -17.93 96.92
-110.56 -20.62 96.27
-110.66 -23.19 95.59
[...]
CELL_DATA 49152
SCALARS Temperature float 1
LOOKUP_TABLE default
330.658
329.732
305.784
307.227
326.54
324.665
292.561
300.586
304.528
305.956
313.219
309.163
312.983
308.605
318.237
317.002
324.055
327.451
304.061
306.875
277.355
269.716
268.949
270.148
310.438
303.535
328.284
317.11
331.553
321.892
300.964
311.637
300.712
297.813
307.057
303.332
317.551
325.031
306.7
306.218
305.255
324.14
318.063
338.77
335.642
308.543
324.155
312.708
317.081
294.751
290.174
294.948
306.525
287.999
281.173
281.177
266.494
301.472
286.851
272.988
284.984
265.566
255.622
293.004
285.27
287.035
241.549
253.914
88.9364
80.6781
152.077
150.412
196.585
186.796
243.912
238.036
256.798
257.862
193.045
179.564
218.83
217.23
251.056
249.825
247.334
251.517
254.067
249.219
250.487
252.697
284.714
212.155
229.219
206.959
163.907
166.017
171.821
144.558
62.4176
74.3817
66.0341
84.561
77.136
77.3681
73.9377
63.6311
62.4124
62.5382
51.3248
43.6963
41.1973
44.9098
237.856
270.024
251.469
44.4279
209.074
19.902
140.667
18.8439
13.02
13.8372
17.6243
18.0713
18.69
19.4947
0.0723705
0.0690279
320.751
321.161
306.732
301.25
318.707
320.685
285.679
283.55
301.086
304.339
303.47
308.283
316.497
311.485
322.694
319.306
305.216
310.906
304.251
303.612
299.097
295.016
295.915
287.516
313.366
317.901
308.231
314.909
279.729
284.302
267.285
262.214
288.863
329.192
309.177
315.018
319.743
297.297
289.391
303.64
305.901
332.501
325.157
320.115
290.053
294.088
304.966
284.014
291.991
290.135
283.719
284.286
265.441
278.521
265.6
267.36
276.672
257.164
235.042
282.733
257.752
295.871
287.71
283.376
237.481
246.937
170.841
171.711
240.703
230.144
260.937
256.321
254.823
258.326
247.034
253.308
202.534
214.304
198.938
183.115
240.467
229.708
254.175
254.379
239.772
241.135
274.134
271.975
272.278
268.546
276.511
276.5
252.26
256.961
201.644
205.211
206.965
206.042
103.637
253.391
257.559
73.7277
52.7918
89.6549
75.8023
83.5279
69.3468
63.4126
51.8657
50.8627
52.8342
51.8516
177.762
49.7392
21.1478
30.7388
28.1267
19.836
18.9852
17.6681
17.797
18.1685
17.2621
25.894
18.6159
19.9981
0.056651
0.0535642
322.04
321.754
310.604
310.126
293.066
299.579
307.092
295.012
325.207
317.427
332.55
329.031
330.231
335.666
316.233
321.181
297.503
295.8
322.523
318.566
322.463
319.592
322.398
317.95
307.606
313.794
289.202
298.902
292.202
290.52
315.609
309.837
334.005
322.973
312.872
315.627
305.776
322.657
313.889
303.873
327.634
296.967
303.569
292.97
271.788
267.724
284.198
282.595
290.699
300.533
265.852
272.429
252.14
252.39
279.412
290.624
286.581
276.291
290.032
307.746
297.817
278.998
278.763
260.176
251.672
245.072
265.214
260.652
296.376
296.408
275.164
278.448
235.367
240.995
251.067
250.099
252.723
250.264
265.349
266.566
255.172
257.917
229.217
231.214
251.979
245.924
281.111
298.934
265.79
268.923
263.901
263.105
216.716
218.169
189.613
190.793
234.908
189.902
230.582
233.618
175.225
172.154
216.736
213.449
84.8631
292.77
72.9947
310.115
221.001
76.2635
33.2639
17.1353
54.4006
14.1773
39.8085
16.3553
20.7004
14.1998
18.6188
28.9352
29.6931
30.5194
27.8655
29.7264
20.8392
22.0188
0.0420192
0.0423114
331.384
334.078
312.841
316.916
291.423
294.343
313.192
315.316
325.562
322.035
330.222
327.318
305.674
310.011
295.326
300.303
299.727
298.508
314.212
315.701
307.722
306.868
300.953
300.519
280.535
278.189
296.165
289.036
318.378
316.364
333.934
323.454
325.416
293.263
303.835
334.359
318.856
314.718
300.518
298.163
307.448
317.789
311.54
317.272
282.492
288.872
279.092
284.931
273.997
281.585
246.563
243.302
276.272
266.464
296.46
308.075
292.095
298.786
315.519
279.249
279.628
272.558
266.291
295.35
305.843
300.903
294.464
294.521
283.42
290.031
239.685
245.718
249.382
242.513
276.366
275.296
272.874
273.121
264.284
266.962
254.452
256.132
248.42
247.539
271.711
271.657
289.963
232.556
211.254
211.772
206.509
208.405
53.1946
59.3495
230.299
223.716
229.502
231.853
213.782
220.122
142.773
142.126
187.223
205.238
251.984
276.561
270.663
231.148
27.8994
25.272
22.084
19.6855
8.3767
8.00313
7.46445
7.0639
7.10837
7.30939
9.79783
9.57442
13.783
13.4961
27.6379
17.9703
20.5079
17.3186
13.1619
12.2745
303.603
314.414
291.127
293.605
295.682
289.873
321.679
320.524
319.738
324.438
295.605
302.024
284.95
275.759
287.535
283.616
305.012
303.457
320.428
319
320.824
319.962
297.956
301.773
281.974
281.722
308.053
304.881
308.693
324.636
319.791
320.261
304.493
319.238
335.947
321.335
310.979
282.569
285.73
284.653
302.436
292.448
294.913
281.754
253.155
248.931
252.394
254.455
269.425
266.443
257.657
307.119
298.638
308.741
312.018
306.4
298.3
294.79
281.446
285.048
281.663
283.535
292.582
290.77
302.41
305.043
269.812
268.375
245.867
247.556
265.135
258.354
279.271
279.966
282.967
283.464
279.26
278.682
269.247
269.792
268.154
268.728
262.151
263.77
260.286
265.151
217.539
224.43
183.92
185.089
205.361
203.658
220.281
217.07
238.537
239.528
203.083
198.789
210.655
209.028
238.727
236.52
254.025
254.796
294.423
39.1694
159.861
26.3279
24.898
17.6412
10.9169
18.5064
12.925
9.00505
8.14906
7.89837
8.00516
7.64684
8.70458
8.24188
10.8956
9.76361
11.3012
9.54742
11.9206
2.97797
9.77691
1.82387
281.605
279.108
283.861
285.654
298.457
297.439
317.382
316.346
306.909
307.905
292.537
294.577
295.481
297.993
300.31
295.335
306.142
305.696
314.388
315.233
314.21
313.712
281.501
282.278
303.59
299.241
322.431
330.131
324.837
318.903
317.589
323.003
312.936
320.764
325.308
289.339
280.696
281.336
284.848
323.29
309.349
288.358
297.377
275.923
275.019
270.892
276.263
271.883
289.065
284.111
300.166
306.681
300.225
296.407
280.141
284.681
271.418
285.569
276.115
272.903
285.648
300.232
299.619
294.262
288.228
291.81
264.453
261.809
256.523
251.136
262.568
264.936
257.96
257.62
266.148
265.734
267.787
267.035
266.95
264.199
263.999
264.274
263.947
263.079
245.865
249.688
238.927
238.381
265.807
264.473
254.031
256.598
203.689
209.457
158.173
161.007
123.622
117.629
110.615
85.1808
172.886
232.647
212.353
251.547
29.9429
28.3516
11.4573
5.40311
6.78105
5.0164
4.81377
5.18513
9.57835
12.1765
9.06093
7.1524
7.17355
5.77219
7.89906
9.90647
6.93608
6.56221
4.79693
3.25725
2.68413
1.13586
1.36367
1.01688
264.904
263.59
285.976
279.523
304.362
302.841
318.164
318.33
302.958
303.361
303.683
300.338
309.179
308.98
301.918
306.91
296.508
297.397
303.467
303.681
300.871
301.183
287.765
283.975
309.619
309.449
316.663
299.195
287.284
289.128
279.908
281.917
275.203
274.514
267.612
263.823
253.256
298.527
305.081
317.731
281.655
301.596
286.541
266.942
278.501
295.505
280.132
302.56
291.579
291.843
310.326
289.467
293.145
280.54
258.131
261.104
278.331
293.681
275.887
285.618
288.87
278.932
280.4
297.021
265.951
269.023
240.913
246.776
247.304
243.084
242.387
239.536
247.77
247.432
258.755
258.082
245.092
247.503
234.913
236.38
213.371
213.629
227.486
225.772
218.923
216.708
235.144
235.095
259.926
259.824
202.53
205.02
56.0078
47.0959
176.952
177.632
184.147
184.406
151.605
154.188
205.846
179.518
200.278
130.902
29.9808
18.0958
13.7866
10.7526
13.927
8.40426
14.3346
13.2328
12.5462
7.7903
6.41126
5.53536
4.25293
3.57686
8.7181
9.2353
10.9838
12.0267
2.76833
2.20298
1.97035
1.79942
1.29509
1.17606
284.501
280.905
294.879
295.041
297.964
297.909
303.833
304.609
293.93
292.442
306.249
303.595
307.785
305.962
290.721
292.449
308.381
306.898
307.732
308.741
302.871
303.381
297.087
296.713
301.385
301.132
289.286
290.67
271.03
272.217
278.852
277.727
282.995
304.296
287.223
298.044
294.607
317.905
318.41
284.359
277.002
279.127
255.038
251.585
277.284
279.835
275.859
296.277
271.758
299.98
291.446
288.889
279.612
281.483
273.49
270.458
302.622
292.865
286.814
274.891
279.538
272.554
287.958
236.48
237.717
234.404
240.774
237.71
260.645
261.867
246.554
245.167
260.589
257.103
283.193
280.475
269.937
269.423
230.721
241.065
219.621
220.94
218.553
219.889
201.698
201.265
184.56
184.979
206.203
207.996
50.1981
50.2932
49.5844
61.7547
208.191
207.785
210.608
211.381
185.513
186.678
198.862
201.751
197.615
41.92
38.4804
11.1339
13.7278
17.6674
15.2892
15.3038
14.5411
12.6514
11.709
9.55615
8.32895
7.93569
4.51493
2.56969
4.59583
2.23957
3.29173
2.21895
1.85833
1.87465
1.21423
1.55665
1.44838
1.96105
320.186
316.714
318.188
318.077
310.389
313.561
318.824
318.773
301.066
304.278
285.991
293.32
279.048
280.577
299.599
291.043
318.269
317.479
304.74
306.07
301.523
302.708
300.057
300.014
304.485
303.844
298.95
296.902
307.695
303.071
316.741
316.091
325.262
319.992
313.965
315.593
323.573
319.566
304.982
294.781
295.56
316.081
285.945
313.297
309.432
265.288
302.527
270.882
282.175
287.269
272.89
293.586
272.796
276.943
274.863
282.353
292.499
286.416
277.482
308.38
293.039
276.555
278.088
253.981
267.771
268.429
258.126
258.422
261.789
262.177
255.714
255.692
265.658
265.203
268.026
268.987
259.618
255.048
244.769
238.885
253.611
254.738
214.964
220.419
214.58
215.215
207.717
206.798
212.756
214.028
143.941
46.212
192.188
44.6902
189.162
192.607
191.359
191.119
183.294
181.054
217.756
215.815
187.386
190.054
38.3975
32.9671
35.1366
29.8468
14.1695
13.643
10.3582
5.09728
4.04019
7.11485
6.16583
4.36495
2.97319
2.64717
1.65632
1.82131
1.83135
1.61395
1.77388
1.49532
1.71854
1.92294
1.9498
1.71187
304.425
306.326
288.674
288.052
287.751
284.89
295.085
297.655
299.351
294.042
304.003
299.691
315.787
315.16
327.131
327.79
319.162
311.893
294.983
339.374
321.004
348.899
337.128
324.293
336.324
296.479
315.527
318.917
320.312
318.969
313.05
313.38
316.437
316.542
311.096
316.002
319.112
295.015
286.972
307.442
309.46
329.614
306.021
295.96
263.567
265.595
285.354
286.059
297.696
306.112
300.108
279.672
272.268
267.058
272.241
282.522
284.281
286.973
294.834
303.69
271.725
261.895
255.045
255.288
268.639
268.662
257.52
258.59
254.979
256.54
264.046
262.052
271.665
271.602
250.518
254.754
183.195
197.32
180.674
173.226
221.165
216.286
198.319
195.95
231.998
233.331
234.201
234.141
222.471
223.396
221.53
218.986
232.623
233.032
224.684
223.502
243.241
243.273
238.874
239.114
224.055
228.54
191.233
190.579
128.509
60.4532
20.3872
93.8483
12.0869
10.3741
8.41514
12.0132
11.0297
10.0829
9.04669
7.96015
6.71919
5.63718
3.93307
3.25387
1.84105
3.27689
2.09728
3.81033
2.75432
1.99929
1.84818
0.904681
281.487
282.148
285.798
283.969
288.533
286.936
308.943
303.652
318.512
317.436
316.622
315.068
317.098
343.114
337.329
331.408
330.645
337.652
341.865
349.642
343.888
336.964
319.811
326.628
314.608
314.173
317.164
321.586
315.199
316.292
315.379
314.106
319.615
295.716
307.345
305.183
295.166
297.569
300.2
297.491
314.169
281.69
259.201
262.242
258.261
250.995
280.071
314.851
311.781
295.457
287.483
262.98
266.579
261.087
275.507
266.615
275.185
271.9
288.329
270.183
227.738
243.978
226.022
249.227
260.712
259.273
263.352
260.669
267.815
266.993
272.209
273.809
261.131
263.252
255.078
253.224
241.625
240.388
229.518
234.805
223.838
223.912
217.932
211.416
231.788
231.251
241.431
241.781
229.82
229.917
235.809
235.858
231.411
231.17
234.668
234.188
219.777
222.939
209.036
210.167
178.897
180.017
150.069
156.17
81.028
18.5569
149.493
149.05
12.5607
12.2006
11.2211
11.1208
9.96238
9.79942
9.0046
8.79967
7.89233
7.18785
5.75042
4.12695
4.60549
1.53489
3.18148
3.69299
1.75705
2.29073
1.92871
1.39001
295.771
335.456
320.325
320.008
314.151
315.428
328.597
331.654
312.998
315.232
311.757
311.488
321.953
344.96
323.267
333.43
331.896
348.029
348.153
340.11
334.341
301.298
305.139
312.939
296.9
346.968
322.894
360.375
348.391
331.753
322.12
329.686
316.436
303.632
320.643
291.66
301.309
299.39
301.451
294.094
298.221
267.43
267.099
273.573
266.513
290.941
294.434
286.67
275.659
228.176
239.138
236.617
237.902
258.481
258.492
258.449
265.756
262.717
272.298
252.34
227.778
267.295
243.624
272.32
276.065
274.913
263.495
264.847
265.06
263.663
249.878
252.96
230.057
232.599
246.338
245.855
217.555
216.978
191.049
189.738
235.905
236.864
229.423
229.69
208.4
205.48
230.573
229.225
226.089
225.599
221.357
222.207
205.899
206.762
189.45
190.963
146.348
145.987
160.585
162.373
153.794
149.648
13.4991
11.0975
9.96935
9.32705
9.305
8.85468
9.17546
9.71564
8.80251
9.12157
8.19617
8.6631
7.92957
7.98381
7.08831
6.17546
5.07472
3.08108
1.6892
1.04541
2.42374
1.0693
0.687946
0.223733
0.408287
1.30604
324.19
321.027
306.937
330.818
312.789
341.113
341.115
327.605
320.517
321.725
328.937
328.749
344.14
325.057
318.571
318.86
326.514
337.469
327.336
295.555
282.412
307.017
305.207
349.449
341.762
370.49
357.222
370.213
331.969
336.847
284.264
297.337
310.052
279.832
299.824
306.289
310.146
291.92
300.909
290.81
285.795
277.962
285.118
260.122
281.307
245.335
265.735
214.37
180.618
261.615
238.698
275.621
255.912
278.86
266.737
280.224
278.4
280.133
278.426
268.255
273.899
277.69
269.828
283.124
274.373
275.128
249.561
250.533
251.944
253.09
236.619
235.34
218.822
219.497
242.296
242.866
162.21
166.758
184.878
179.831
234.538
233.702
239.998
239.994
227.273
227.212
227.383
227.095
204.235
204.156
179.521
180.121
163.11
163.92
111.682
116.734
159.944
154.415
181.234
179.473
98.6341
122.393
12.1698
9.06474
7.91927
5.8816
5.73056
6.05763
5.93052
9.8061
9.05813
7.34747
6.58725
7.02745
6.52481
6.14974
5.40703
5.48754
4.60853
3.65925
1.86002
1.4147
0.50904
0.801871
0.341484
0.578254
0.321159
0.846057
309.86
329.133
319.355
340.429
330.039
331.804
321.759
327.465
318.26
338.558
335.432
344.895
347.162
337.342
336.372
332.888
346.941
261.29
283.933
300.969
292.739
332.26
335.022
333.412
343.881
353.136
339.479
333.934
268.396
270.125
132.48
134.748
238.467
246.858
278.167
267.353
265.25
260.237
266.614
250.31
248.863
248.465
244.316
243.837
248.17
263.113
252.403
285.946
280.854
317.478
299.128
322.752
305.748
299.276
299.937
265.927
285.733
290.879
281.669
275.725
285.792
271.793
279.674
271.124
252.638
254.659
243.308
241.346
258.535
257.48
253.865
253.55
266.137
263.858
275.284
276.14
227.553
229.585
246.251
246.742
239.208
240.256
229.809
230.084
200.64
201.513
206.485
206.224
34.2506
36.6542
38.6168
35.0153
35.5085
26.7403
153.723
148.041
173.328
175.985
105.698
119.307
23.7637
11.8665
14.1584
10.0691
9.89104
2.44072
1.46368
2.05913
1.28457
7.26056
7.48669
4.56892
3.80812
3.12973
3.12786
2.3747
2.0369
2.19892
1.48872
3.53837
3.05441
2.45016
1.61366
0.501292
0.263377
0.210408
0.266887
0.31692
318.337
334.882
328.699
313.405
309.149
302.034
296.3
314.11
307.893
346.116
331.907
348.351
336.912
337.302
333.891
307.27
305.001
304.535
327.439
331.329
339.233
283.087
317.1
269.938
316.848
286.089
265.622
283.573
77.2589
79.4942
112.088
118.711
62.6968
214.873
275.141
279.527
244.212
249.039
246.465
233.289
238.929
263.33
244.262
280.869
270.956
294.466
289.745
297.537
308.46
310.147
304.172
305.418
279.203
269.625
252.144
266.865
283.409
271.056
263.453
260.398
264.726
264.855
268.328
260.19
253.675
252.242
270.103
268.5
267.465
267.968
260.882
260.462
274.916
274.64
240.624
242.257
196.071
195.022
243.407
243.189
238.926
239.207
231.209
232.018
209.323
209.362
215.337
215.838
148.467
145.944
119.642
34.1223
37.5415
36.5139
39.7407
183.708
133.165
134.084
28.8753
27.0068
175.404
179.721
12.0951
2.68184
6.64852
3.0331
1.35703
1.13538
0.811529
1.17261
0.455754
3.96151
3.33875
0.954718
1.71595
2.57151
2.14887
1.92224
1.27862
1.53291
1.4868
3.6352
2.2136
0.758021
0.725992
0.327837
0.846526
1.05235
319.05
292.327
285.238
301.943
286.862
301.107
297.877
310.901
319.125
313.315
308.324
316.69
297.029
294.031
259.756
260.072
272.953
273.137
296.733
262.366
252.141
252.525
274.417
258.272
257.426
253.644
109.16
151.245
125.452
117.296
116.899
108.689
82.4949
56.0237
237.653
255.992
205.419
203.24
237.374
273.713
271.512
294.913
284.892
292.458
291.69
288.769
289.913
283.937
300.029
267.376
279.27
257.794
217.672
255.902
224.076
241.099
246.663
233.501
227.343
259.605
248.942
249.682
247.457
247.221
256.367
254.891
269.461
269.216
254.88
254.738
252.5
252.691
253.304
253.792
249.986
247.214
235.599
235.242
219.9
224.435
215.063
215.034
205.36
205.556
210.608
210.19
251
250.222
241.891
240.996
178.532
183.034
194.295
194.376
172.095
178.582
17.5404
11.5523
8.5927
19.9675
0.774969
3.41839
0.0578055
0.0877048
0.0644018
7.18456
4.1133
1.33815
0.136123
0.557875
0.0413915
0.0539345
0.0468422
3.06457
2.78477
2.82069
2.45375
0.954823
0.720148
0.247208
0.208524
0.22456
0.0680561
0.745133
0.558438
0.108194
0.0743082
0.137398
302.607
270.758
288.184
299.487
284.242
282.296
253.666
251.03
236.887
234.697
231.667
251.657
171.301
274.117
250.991
246.936
282.675
281.959
280.28
279.713
267.008
267.604
261.134
263.659
229.328
232.822
193.806
200.692
162.548
99.8578
103.909
83.8128
76.9805
81.3866
87.7059
215.369
242.186
227.432
264.859
295.188
290.227
293.843
285.559
279.447
280.215
279.473
277.502
282.688
280.221
283.062
282.695
274.979
265.839
235.985
230.671
232.118
229.817
255.453
253.951
264.455
248.187
266.819
254.545
256.343
253.048
254.46
231.643
234.351
219.926
217.654
217.655
216.83
221.613
221.54
233.791
233.63
171.735
165.672
55.5182
52.2955
187.833
187.892
196.165
195.19
206.682
206.647
243.666
243.569
119.265
130.371
17.2696
19.6411
5.35888
103.812
1.26366
1.96614
1.8179
0.553639
1.02973
0.290745
0.306339
0.250555
0.0110003
0.0126853
0.0182944
0.655204
0.18019
0.045384
0.0702627
0.0686881
0.074824
0.0612594
0.0709757
0.0393114
0.928661
0.856716
1.01364
1.71993
1.03926
0.267696
0.0946595
0.154877
0.129492
0.565203
0.544563
0.535486
0.0222427
0.0270082
285.61
285.249
304.39
256.232
262.453
285.743
247.533
247.868
274.031
272.707
295.311
294.171
287.238
297.937
275.331
297.717
275.557
332.962
299.716
334.351
273.63
280.919
239.318
245.48
232.653
232.875
256.465
254.317
279.331
277.997
278.431
291.343
53.2724
283.69
64.0628
293.326
296.023
303.123
297.395
288.543
290.628
285.75
276.215
297.198
286.329
291.383
289.638
273.774
281.853
253.633
264.71
259.009
232.932
259.907
241.911
268.329
264.67
272.649
272.227
265.009
264.186
263.924
252.545
253.88
247.402
247.637
230.406
231.305
218.915
222.202
201.558
201.513
212.199
211.011
166.571
176.718
46.9026
30.6255
32.0003
57.643
205.827
205.804
192.281
193.686
159.965
161.804
219.217
219.258
6.78965e-05
0.0116668
0.522377
2.03377
2.86082
3.58558
7.6858e-05
6.534e-05
6.76443e-05
7.71972
0.255754
0.267136
0.153841
0.205573
0.139138
0.00572599
0.021149
0.0223063
0.0194569
0.371802
0.657439
0.0925224
0.0618148
0.0726202
0.0647304
0.0689878
0.564003
0.707382
0.835845
0.906117
0.922473
0.777426
0.0811471
0.0828389
0.0809111
0.105804
0.465175
0.10522
0.130783
0.0733409
272.96
273.264
272.53
271.679
286.539
286.414
249.598
297.466
293.795
302.436
315.331
295.832
304.392
297.987
290.379
261.463
287.163
270.169
227.427
228.501
118.996
116.527
104.95
148.081
254.437
251.712
272.315
297.963
294.759
301.597
294.665
294.736
284.285
294.127
292.33
285.855
296.432
277.249
275.6
286.644
280.147
295.025
289.772
295.771
284.199
303.347
283.727
248.947
263.072
221.261
255.374
259.164
246.816
284.671
264.052
292.584
278.488
264.05
268.091
252.087
260.207
250.805
244.207
248.964
240.396
240.203
233.514
232.422
234.413
233.721
239.92
240.034
234.255
235.533
212.369
211.204
219.349
219.525
195.157
194.967
174.855
175.863
117.272
120.205
42.1714
45.1227
195.112
196.219
19.2953
0.000759687
0.240586
0.524357
1.62595
1.47202
5.28666e-05
7.2696e-05
6.89562e-05
6.20776e-05
2.91506e-05
0
1.0918e-13
1.41346e-14
1.47058e-06
1.39768e-06
1.20798e-06
0.012982
0.00226886
0.0131256
0.00633351
0.00632661
0.0011062
0.00837271
0.00513747
0.0431156
0
0
0
0
0.0268472
0.469707
0.0796026
0.317471
0.312958
0.0399807
0.138563
0.0817433
0.114411
0.115856
273.84
274.575
271.117
307.161
310.911
277.606
285.271
303.568
295.352
295.108
299.705
287.844
299.583
274.683
264.16
257.042
236.602
237.53
176.071
171.812
184.555
113.65
116.233
296.762
270.814
306.816
298.119
313.816
306.604
325.705
310.323
304.362
302.967
281.989
288.973
275.947
283.778
259.43
278.289
284.042
283.123
294.784
286.458
292.714
288.449
257.703
229.246
228.025
220.665
258.973
270.136
296.325
291.246
306.164
295.3
263.176
257.317
245.396
246.822
265.676
259.062
249.505
251.008
241.592
236.244
236.408
238.417
237.286