# vtk DataFile Version 3.0
vtk output
ASCII
DATASET POLYDATA
POINTS 24578 float
-151.53 81.83 75.23
-146.76 79.98 77.9
-147.26 82.51 76.57
-151.22 79.35 76.36
-146.3 77.32 78.47
-150.76 76.75 77.01
-146.01 74.82 79.56
-150.4 74.19 77.98
-145.43 72.07 79.86
-149.95 71.56 78.66
-145.02 69.6 80.58
-149.55 69.11 79.46
-144.64 67.21 81.53
-149.14 66.64 80.2
-144.27 64.77 82.34
-148.68 64.12 80.8
-144.06 62.18 83.1
-148.26 61.63 81.51
-143.83 59.57 83.96
-148.2 59.14 82.73
-143.54 56.98 84.63
-148.02 56.58 83.6
-143.3 54.28 84.95
-147.52 53.77 83.62
-142.71 51.53 84.98
-147.03 50.98 83.68
-142.34 49.05 85.71
-146.66 48.52 84.06
-142.24 46.57 86.6
-146.26 46.05 84.34
-145.97 43.63 84.94
-141.82 44.09 87.11
-141.56 41.44 87.04
-145.67 41.21 85.5
-140.98 38.76 87.5
-145.29 38.66 85.7
-140.75 36.16 87.85
-144.89 36.1 85.85
-144.62 33.53 86.3
-140.46 33.57 88.45
-140.13 30.94 88.56
-144.22 30.94 86.41
-143.81 28.2 86.49
-139.84 28.2 88.9
-143.44 25.45 86.68
-139.6 25.51 89.44
-143.18 22.67 87.12
-139.22 22.78 89.44
-142.9 19.88 87.51
-138.79 20.04 89.71
-142.6 17.15 87.83
-138.39 17.32 89.75
-137.91 14.61 89.73
-142.25 14.42 88.03
-141.99 11.68 88.46
-137.6 11.89 89.94
-141.61 8.95 88.57
-137.22 9.16 90.05
-141.13 6.27 88.48
-136.86 6.45 90.3
-140.68 3.58 88.47
-136.37 3.76 90.16
-140.25 0.89 88.51
-135.88 1.07 90.03
-139.71 -1.79 88.26
-135.64 -1.76 90.02
-135.64 -4.55 89.75
-140 -4.44 88.09
-135.69 -7.09 89
-140.34 -7.12 88.03
-135.79 -9.62 88.23
-140.37 -9.69 87.25
-135.84 -12.19 87.54
-140.43 -12.27 86.54
-135.99 -14.75 87
-140.5 -14.79 85.8
-136.21 -17.35 86.64
-140.62 -17.33 85.19
-136.42 -19.93 86.21
-140.85 -19.94 84.82
-136.49 -22.42 85.34
-140.79 -22.34 83.7
-136.45 -24.91 84.43
-140.78 -24.79 82.73
-136.55 -27.44 83.74
-140.84 -27.3 81.99
-136.57 -29.97 82.98
-140.97 -29.86 81.42
-136.73 -32.54 82.43
-141.02 -32.36 80.63
-136.76 -35.12 81.64
-141.09 -34.97 79.94
-141.32 -37.69 79.69
-136.83 -37.72 80.96
-141.45 -40.33 79.13
-136.9 -40.34 80.32
-137.11 -43 79.41
-141.48 -42.91 78.35
-141.57 -45.38 77.61
-137.04 -45.54 78.64
-141.59 -47.8 76.7
-137.03 -47.91 77.56
-141.86 -50.43 76.49
-137.15 -50.39 76.9
-141.9 -52.84 75.63
-137.27 -52.84 76.11
-141.91 -55.11 74.4
-137.53 -55.19 75.26
-137.48 -57.49 74.21
-141.9 -57.35 73.07
-142.03 -59.74 72.14
-137.7 -59.92 73.43
-142.25 -62.22 71.44
-137.97 -62.48 72.92
-142.57 -64.67 70.67
-138.15 -65.14 72.4
-142.87 -67.1 69.86
-138.34 -67.41 71.12
-143.16 -69.56 69.09
-138.58 -69.8 70.17
-143.42 -71.97 68.22
-138.72 -72 68.84
-143.42 -74.03 66.78
-138.71 -74.17 67.59
-143.52 -76.26 65.69
-138.9 -76.5 66.65
-143.64 -78.59 64.8
-139.03 -78.91 65.88
-143.64 -80.66 63.43
-139.36 -81.09 64.3
-142.41 80.53 78.87
-142.88 83.09 77.59
-141.83 77.87 79.86
-141.49 75.33 80.8
-140.97 72.61 81.19
-140.47 70.13 81.77
-140.01 67.69 82.47
-139.94 65.21 83.59
-139.84 62.72 84.64
-139.44 60.04 85.13
-139.12 57.42 85.86
-138.88 54.8 86.42
-138.56 52.14 86.78
-138.19 49.56 87.25
-137.83 46.99 87.76
-137.58 44.31 88.01
-137.31 41.63 88.23
-137.03 38.95 89.21
-136.57 36.22 89.77
-136.22 33.57 90.06
-135.88 30.91 90.36
-135.74 28.24 91.1
-135.47 25.56 91.56
-134.94 22.88 91.41
-134.47 20.19 91.43
-134.08 17.49 91.57
-133.61 14.8 91.52
-133.09 12.1 91.2
-132.71 9.37 91.23
-132.3 6.67 91.32
-131.94 3.96 91.53
-131.76 1.11 91.67
-131.5 -1.71 91.62
-131.31 -4.41 90.89
-131.1 -7.09 90.13
-131.35 -9.7 89.79
-131.55 -12.29 89.33
-131.63 -14.81 88.62
-131.74 -17.34 87.96
-131.85 -19.85 87.19
-132.06 -22.42 86.66
-132.19 -25.02 86.17
-132.25 -27.57 85.48
-132.26 -30.09 84.65
-132.44 -32.72 84.26
-132.56 -35.36 83.72
-132.63 -37.97 83.04
-132.75 -40.58 81.94
-132.83 -43.16 80.72
-132.77 -45.71 79.94
-132.75 -48.3 79.25
-132.77 -50.64 78.12
-132.8 -52.99 77
-132.95 -55.32 76.2
-133.13 -57.69 75.53
-133.33 -60.11 74.69
-133.5 -62.48 73.72
-133.64 -65.09 73
-133.72 -67.59 72.04
-133.86 -69.81 70.74
-134.01 -72.03 69.43
-134.18 -74.44 68.63
-134.35 -76.86 67.84
-134.77 -79.33 66.76
-135.07 -81.54 65.2
-138.04 81.11 79.93
-138.51 83.66 78.64
-137.48 78.45 80.95
-136.81 75.7 81.58
-136.53 73.2 82.68
-136.2 70.85 83.66
-136.01 68.35 84.53
-135.78 65.76 85.17
-135.49 63.19 85.82
-135.19 60.56 86.38
-134.98 57.99 87.45
-134.76 55.37 88.25
-134.53 52.77 88.88
-134 50.11 89.1
-133.65 47.3 89.03
-133.3 44.56 89.42
-133.29 41.92 90.17
-132.89 39.2 91
-132.5 36.43 91.58
-132.05 33.68 92.21
-131.7 30.98 92.36
-131.44 28.31 92.66
-131.04 25.67 93.02
-130.62 23.02 93.01
-130.15 20.36 93.11
-129.82 17.66 93.35
-129.27 14.97 93.05
-128.74 12.27 92.73
-128.4 9.55 92.87
-127.96 6.85 92.86
-127.84 4 93.22
-127.59 1.17 93.17
-127.27 -1.64 92.97
-127.25 -4.36 92.57
-127.15 -7.08 92.07
-127.17 -9.83 91.83
-127.29 -12.38 91.16
-127.29 -14.86 90.23
-127.44 -17.42 89.6
-127.57 -19.97 88.96
-127.76 -22.53 88.35
-127.82 -25.1 87.72
-127.85 -27.64 86.95
-127.95 -30.27 86.46
-128.2 -32.95 86.24
-128.25 -35.54 85.49
-128.5 -38.26 84.8
-128.59 -40.83 83.55
-128.62 -43.36 82.3
-128.5 -45.86 81.36
-128.57 -48.51 80.64
-128.51 -50.96 79.6
-128.63 -53.39 78.68
-128.82 -55.89 78.24
-129.15 -58.39 77.85
-129.06 -60.46 76.29
-128.99 -62.4 74.44
-128.98 -64.79 73.19
-129.01 -67.15 71.96
-128.97 -69.58 70.84
-129.28 -72.05 69.98
-129.48 -74.55 69.36
-130.01 -77.21 68.65
-130.42 -79.71 67.63
-130.79 -82.03 66.21
-133.82 81.84 81.46
-134.36 84.47 80.38
-133.19 79.09 82.22
-132.49 76.28 82.7
-131.95 73.65 83.71
-131.93 71.29 85
-131.87 68.9 86.17
-131.5 66.27 86.57
-131.13 63.64 86.94
-130.87 61.02 87.58
-130.68 58.45 88.47
-130.46 55.86 89.34
-130.18 53.24 90.02
-129.88 50.44 90.31
-129.64 47.69 90.79
-129.42 44.94 91.36
-129.23 42.2 92.03
-128.71 39.37 92.41
-128.45 36.65 93.48
-128.03 33.86 94.03
-127.47 31.03 94.24
-127.19 28.41 94.71
-126.88 25.78 95.12
-126.32 23.16 94.88
-125.8 20.53 94.74
-125.36 17.84 94.64
-124.86 15.16 94.43
-124.49 12.44 94.52
-124.2 9.71 94.8
-123.95 6.88 94.78
-123.68 4.05 94.73
-123.4 1.23 94.62
-123.18 -1.6 94.69
-123.37 -4.41 94.84
-123.31 -7.12 94.32
-123.16 -9.79 93.63
-122.95 -12.42 92.76
-123.09 -14.99 92.12
-123.27 -17.57 91.56
-123.4 -20.13 90.9
-123.5 -22.66 90.14
-123.53 -25.22 89.42
-123.57 -27.78 88.7
-123.68 -30.42 88.22
-123.74 -33.02 87.62
-123.94 -35.69 86.77
-124.14 -38.36 85.91
-124.27 -40.96 84.88
-124.51 -43.67 84.17
-124.44 -46.18 83.04
-124.36 -48.68 81.9
-124.32 -51.14 80.87
-124.34 -53.66 80.01
-124.65 -56.22 79.72
-124.85 -58.64 79.12
-124.76 -60.62 77.46
-124.57 -62.46 75.52
-124.49 -64.69 73.94
-124.51 -67.1 72.74
-124.57 -69.65 71.8
-124.65 -72.26 70.99
-125.14 -74.86 70.13
-125.57 -77.36 69.04
-126.01 -79.84 67.96
-126.39 -82.16 66.58
-129.58 82.52 82.46
-130.23 85.32 82
-128.9 79.77 83.09
-128.4 77.11 83.84
-127.98 74.41 84.96
-127.56 71.77 85.9
-127.33 69.24 86.57
-127.15 66.76 87.43
-126.86 64.14 88.01
-126.52 61.49 88.81
-126.36 58.96 89.84
-126.14 56.38 90.8
-125.97 53.53 91.15
-125.51 50.64 91.5
-125.42 47.93 92.31
-125.22 45.19 93.14
-125.05 42.45 93.81
-124.64 39.66 94.38
-124.31 36.88 95.2
-123.77 34.05 95.42
-123.26 31.23 95.69
-122.78 28.52 96.11
-122.44 25.87 96.38
-121.98 23.27 96.26
-121.42 20.65 96.06
-121.04 17.96 96.08
-120.68 15.29 96.36
-120.38 12.57 96.56
-120.17 9.75 96.72
-119.91 6.93 96.66
-119.55 4.12 96.37
-119.27 1.3 96.28
-119.07 -1.54 96.32
-119.25 -4.36 96.51
-119.22 -7.1 96.08
-119.04 -9.77 95.31
-119 -12.5 94.8
-118.91 -15.21 94.19
-119.08 -17.79 93.59
-119.2 -20.38 92.98
-119.3 -22.91 92.18
-119.31 -25.47 91.43
-119.31 -28 90.63
-119.33 -30.55 89.87
-119.45 -33.15 88.84
-119.6 -35.8 87.91
-119.83 -38.5 87.17
-120.05 -41.2 86.43
-120.26 -43.87 85.57
-120.32 -46.42 84.63
-120.24 -48.94 83.59
-120.24 -51.46 82.7
-120.29 -53.99 81.83
-120.1 -56.26 80.6
-120.22 -58.48 79.45
-120.33 -60.66 78.2
-120.24 -62.81 76.84
-120.26 -65.2 75.6
-120.18 -67.48 74.2
-120.23 -70.02 73.25
-120.52 -72.67 72.16
-120.81 -75.19 70.96
-121.18 -77.58 69.65
-121.52 -79.9 68.24
-121.92 -82.27 66.97
-125.25 83.17 83.41
-125.88 85.88 82.84
-124.6 80.45 83.94
-124.22 77.72 84.75
-123.94 75.09 85.93
-123.46 72.43 86.81
-122.93 69.71 87.46
-122.73 67.14 88.15
-122.59 64.64 89.06
-122.25 62 89.9
-121.95 59.4 90.9
-121.96 56.7 91.92
-121.73 53.8 92.2
-121.47 50.99 93.04
-121.27 48.22 94.07
-121.07 45.45 94.8
-120.88 42.69 95.58
-120.53 39.9 96.26
-120.06 37.06 96.59
-119.52 34.23 96.77
-119.19 31.45 97.53
-118.64 28.71 97.7
-118.07 25.97 97.81
-117.65 23.36 97.86
-117.2 20.75 97.82
-116.76 18.09 97.81
-116.45 15.42 98.16
-116.25 12.62 98.27
-115.94 9.82 98.09
-115.72 7.01 98.16
-115.43 4.19 98.08
-115.24 1.34 98.13
-115.02 -1.5 98.11
-115.03 -4.27 97.86
-115.05 -7.04 97.62
-115.01 -9.78 97.12
-114.91 -12.5 96.46
-114.83 -15.21 95.87
-114.79 -17.94 95.36
-114.95 -20.55 94.79
-115.09 -23.14 94.17
-115.09 -25.69 93.41
-115.09 -28.25 92.66
-115.19 -30.82 91.55
-115.34 -33.43 90.58
-115.56 -36.16 89.86
-115.65 -38.76 88.81
-115.73 -41.32 87.6
-115.89 -43.96 86.62
-115.94 -46.5 85.75
-115.97 -49.02 84.82
-116.06 -51.62 84.1
-116.16 -54.22 83.41
-116 -56.46 81.98
-115.78 -58.59 80.34
-115.73 -60.7 78.9
-115.82 -63.01 77.89
-115.91 -65.56 77.02
-115.85 -67.86 75.66
-116.07 -70.39 74.35
-116.45 -73.24 73.66
-116.73 -75.78 72.45
-116.87 -78.01 70.66
-117.13 -80.1 68.85
-117.46 -82.37 67.36
-120.93 83.58 83.84
-121.35 86.18 83.25
-120.43 80.92 84.76
-120.24 78.29 85.68
-119.85 75.73 86.84
-119.39 73.08 87.68
-118.97 70.39 88.56
-118.52 67.71 89.38
-118.27 65.1 89.93
-117.89 62.43 90.71
-117.77 59.68 91.68
-117.62 56.89 92.64
-117.53 54.11 93.38
-117.25 51.28 94.27
-116.99 48.44 95.07
-116.61 45.56 95.63
-116.37 42.76 96.18
-116.01 39.98 96.85
-115.62 37.17 97.41
-115.23 34.39 98.02
-114.97 31.62 98.96
-114.53 28.91 99.33
-113.9 26.15 99.26
-113.4 23.47 99.53
-113.04 20.85 99.72
-112.61 18.2 99.71
-112.34 15.45 99.77
-112.11 12.66 99.75
-111.7 9.9 99.43
-111.54 7.08 99.65
-111.31 4.26 99.65
-111.1 1.42 99.6
-110.91 -1.42 99.76
-110.84 -4.17 99.3
-110.76 -6.92 98.71
-110.8 -9.71 98.47
-110.76 -12.46 97.96
-110.67 -15.19 97.39
-110.65 -17.93 96.92
-110.56 -20.62 96.27
-110.66 -23.19 95.59
[...]
CELL_DATA 49152
SCALARS Temperature float 1
LOOKUP_TABLE default
3.63068
3.42125
14.1013
1.96667
3.57912
7.18129
19.4859
17.1569
16.8797
18.7916
16.9738
17.4055
15.5378
7.44288
8.17731
9.01786
9.40178
9.19425
22.5433
24.3061
90.5493
248.046
250.433
240.059
75.9738
46.1146
74.1211
254.51
190.85
215.61
275.914
84.9178
195.458
239.314
200.557
257.789
200.066
172.318
262.649
267.614
270.401
247.301
267.595
235.021
249.355
281.549
238.093
253.746
239.669
264.875
273.869
233.206
177.925
216.579
236.54
236.548
264.738
233.397
268.079
277.01
257.344
270.428
282.598
259.698
274.436
248.455
308.532
209.594
299.93
300.886
294.383
295.613
280.992
301.647
264.999
294.589
276.792
269.019
312.739
332.482
320.356
324.173
304.396
309.583
311.36
292.897
290.325
313.487
312.579
304.027
262.884
297.277
286.267
292.632
307.236
302.853
301.343
303.986
313.983
322.764
239.076
284.466
301.78
296.675
327.909
307.049
323.45
340.201
316.067
306.061
299.597
285.271
304.339
289.687
309.321
335.63
302.166
314.164
308.459
334.136
343.036
334.839
324.793
315.117
312.755
304.799
344.619
345.928
2.71087
2.90951
16.2456
17.7982
3.09776
4.16875
3.29355
4.04112
2.46017
2.37379
1.693
2.55707
2.57442
17.5118
8.73595
8.2459
17.0161
19.9434
20.0205
19.9912
23.9606
185.32
44.4397
45.2826
48.1008
57.9051
47.9824
68.1572
47.1425
58.0335
160.253
245.833
60.6807
71.845
205.701
191.254
130.598
213.765
242.335
222.335
211.931
70.4567
194.778
208.995
292.546
268.542
241.555
262.117
244.665
260.321
272.119
268.745
294.237
201.013
236.471
219.357
185.821
213.791
251.667
212.346
264.912
233.779
255.033
258.608
309.888
258.855
304.256
301.412
260.776
307.495
281.179
306.137
307.317
290.784
300.92
267.379
304.859
268.792
278.651
312.138
282.113
321.521
305.618
304.827
315.576
310.356
277.837
294.06
293.571
315.586
307.81
308.069
327.771
300.823
331.541
309.692
308.81
309.008
328.212
307.812
304.076
329.987
307.17
325.937
307.247
306.378
324.405
300.778
306.093
309.836
281.729
313.953
275.031
289.754
329.767
313.071
312.648
331.866
333.732
332.667
332.455
306.615
315.989
306.898
306.312
316.9
345.955
345.036
2.24187
2.36007
14.4175
14.9311
20.7437
19.7988
16.4526
3.10291
1.60042
2.98942
2.95061
2.89801
3.09515
2.79136
7.9618
12.9585
24.9273
24.5639
13.0087
4.93429
9.57782
21.8159
32.9358
233.929
262.057
197.823
269.845
81.4409
61.4385
201.332
67.5963
43.169
60.5107
53.6548
181.992
172.957
230.001
195.521
241.029
254.136
71.2143
199.778
140.394
183.308
253.06
276.791
248.772
260.73
243.025
231.175
294.059
262.737
288.159
287.884
250.2
239.301
248.952
257.547
224.222
192.31
236.041
254.507
254.951
267.14
277.891
311.42
294.899
317.958
276.702
276.763
306.012
285.506
322.657
305.114
297.345
301.41
299.193
310.26
296.82
289.246
300.645
285.839
308.93
301.917
285.02
316.531
280.107
264.064
311.515
292.717
298.092
304.956
333.629
324.817
334.373
330.999
312.986
321.296
303.425
302.574
326.4
332.582
318.375
334.127
315.564
291.068
309.051
284.823
360.443
314.914
366.33
314.893
293.636
321.522
302.736
317.297
324.168
313.012
327.672
301.9
299.453
286.62
300.631
287.594
316.155
312.775
344.66
337.498
2.87634
2.70388
13.6541
8.84162
21.007
20.8309
14.2119
6.14032
6.44406
3.85713
5.12518
8.12342
17.4359
17.4093
23.5214
24.2037
25.4472
25.4543
20.9419
23.0924
26.8868
26.4494
29.1327
28.7373
170.037
215.228
38.7105
269.846
62.6315
51.4512
68.0532
53.6339
53.1203
12.0685
11.1988
42.3684
177.45
189.891
250.314
252.79
221.413
197.81
230.258
219.528
299.417
268.562
283.824
249.696
269.605
197.313
270.429
282.536
234.358
295.198
246.725
231.619
271.966
266.446
210.32
255.813
255.001
260.317
270.536
248.383
210.824
295.5
304.375
304.6
316.957
273.452
321.804
300.85
298.014
323.434
294.956
301.827
304.239
302.979
311.471
297.067
308.623
300.817
307.309
311.546
288.48
289.945
259.98
293.282
305.753
303.527
306.092
290.906
316.198
329.771
295.692
336.275
333.882
325.496
333.618
301.084
323.98
325.209
316.41
313.732
279.86
263.655
273.082
292.895
358.467
352.647
368.414
362.583
349.511
329.895
328.885
327.142
323.121
313.321
306.668
304.297
291.067
299.827
287.35
312.365
308.378
311.626
332.089
330.694
16.894
9.73675
19.4057
19.3948
19.4576
21.4256
5.40003
6.06943
9.4016
5.93136
23.3047
22.071
26.6489
27.705
27.1449
27.3024
24.4708
24.7821
17.8949
16.0406
15.5239
13.4962
26.7609
30.3324
34.4364
34.0337
31.7477
29.4593
30.4302
40.2893
42.675
38.6692
15.7297
29.6467
46.121
38.5636
173.296
225.489
215.23
232.568
106.456
166.395
136.93
184.913
260.241
279.691
276.194
266.65
242.503
264.052
276.696
236.306
259.503
248.59
238.039
245.216
266.097
268.986
290.916
260.49
266.704
265.387
245.529
247.355
206.375
200.494
286.741
296.093
314.573
308.304
293.323
325.046
307.525
303.694
299.867
296.434
301.569
305.344
314.854
312.336
313.818
311.232
316.963
309.975
312.975
286.818
321.19
292.223
311.049
303.992
295.873
305.885
297.396
320.879
308.923
296.696
316.883
331.366
327.414
333.142
319.611
329.979
319.489
318.98
269.542
333.392
286.841
322.312
328.301
353.916
339.782
370.064
335.769
355.151
348.554
335.483
320.27
320.249
311.06
318.802
303.65
323.046
316.325
328.219
314.135
331.326
329.848
324.714
17.8125
19.4098
18.8047
19.5084
17.4848
18.8785
8.69636
11.2596
18.3341
18.4822
23.5352
23.769
24.4979
24.6083
25.1695
26.233
24.8323
25.1207
23.4073
24.1487
26.2232
25.9645
34.847
35.5282
34.932
26.3672
22.4913
25.2434
28.7731
27.1554
29.3386
32.909
24.2664
34.2321
39.2468
200.782
231.782
223.159
212.541
65.7466
220.849
246
218.689
243.152
245.161
272.658
264.167
288.306
261.352
265.177
223.747
212.523
236.683
241.244
276.135
217.012
250.827
238.3
259.045
286.385
266.987
254.28
255.814
260.751
273.218
179.418
260.638
284.127
289.682
315.606
306.896
293.263
299.834
301.701
293.529
296.215
293.935
298.884
298.969
314.044
314.201
313.063
313.324
317.089
328.852
311.252
318.544
322.92
301.616
318.445
326.315
301.973
331.512
296.643
313.045
303.318
308.859
313.227
313.747
322.675
313.637
302.809
313.818
303.117
349.023
340.388
357.157
329.329
345.338
332.795
339.496
322.71
332.12
314.735
343.252
346.138
320.376
331.153
318.246
295.552
328.747
328.824
356.794
331.868
356.406
334.543
326.913
336.801
13.4807
16.2064
12.4881
17.1525
12.4051
15.6705
6.70281
6.75839
17.8965
19
19.5541
22.0215
20.2262
21.1989
24.3492
23.8044
27.6512
28.3519
28.6637
29.3473
31.8683
33.4127
38.0722
35.9761
34.2837
33.9642
34.1585
42.2391
44.5594
46.8939
49.5675
51.8568
52.6998
54.8448
55.6549
49.511
48.363
45.3592
48.5455
50.3254
236.523
211.371
256.121
268.591
248.815
231.484
267.436
246.707
272.006
271.738
220.457
247.615
237.531
250.137
285.173
264.617
230.798
210.476
258.874
251.1
243.193
252.171
249.13
231.843
289.707
264.478
295.093
253.488
252.6
286.114
286.741
301.778
295.569
297.294
286.825
291.235
302.47
289.948
300.05
293.571
307.435
306.669
299.106
307.18
310.914
326.507
317.371
318.196
298.971
300.542
333.021
321.952
340.631
328.23
316.727
313.945
312.128
311.389
318.534
314.909
299.58
303.835
296.144
303.659
328.689
346.084
350.269
356.965
339.187
351.598
335.905
326.851
314.801
331.154
339.902
339.958
338.896
328.588
286.62
293.354
321.727
304.181
359.387
352.024
357.38
354.679
340.082
348.517
2.64043
3.19055
2.83416
8.96289
2.83433
10.574
8.64925
9.94826
12.8196
17.3386
13.486
18.4661
17.5975
20.6803
24.5796
25.9732
23.4899
25.4763
26.889
28.0263
31.5997
32.7467
36.3555
37.443
40.1612
40.9934
45.8662
47.8362
52.1763
53.0066
56.4062
54.229
55.6213
55.8202
52.47
53.8355
51.436
51.3667
50.2101
55.3548
80.8113
55.0942
230.386
255.725
193.848
189.424
205.434
157.902
253.521
222.992
249.633
252.092
270.664
250.94
266.104
291.028
224.777
236.596
252.153
261.567
252.646
257.982
219.92
259.605
258.137
280.54
274.818
294.353
271.827
258.584
277.578
287.452
270.741
297.936
263.972
293.593
305.223
308.061
332.544
301.355
313.759
308.42
309.687
298.403
307.341
309.528
315.214
313.568
305.858
292.294
323.932
328.383
325.872
339.982
316.08
318.485
317.224
314.252
323.161
320.142
316.286
305.576
307.163
317.054
316.602
332.011
334.436
353.441
332.924
342.748
349.599
334.624
345.219
332.863
339.422
341.43
354.717
338.18
296.705
328.622
294.939
324.088
346.709
330.338
351.795
330.641
350.54
332.824
1.87967
3.01141
2.97315
3.10363
3.28788
2.95847
2.87278
3.0701
3.52534
3.0588
3.98712
9.91556
3.47137
15.108
3.39423
21.1718
13.7756
19.6259
25.0699
27.5139
30.4293
32.713
35.9379
37.646
40.4637
41.9051
47.3389
47.0245
51.1904
43.2226
47.1725
41.8575
45.106
49.7271
45.1982
47.4021
50.3336
53.3389
163.88
190.555
186.346
47.7352
263.672
237.162
249.208
280.215
185.975
231.816
192.362
181.752
236.707
210.235
266.019
263.189
267.019
261.573
236.147
242.794
263.284
230.63
272.677
283.454
281.374
292.554
276.944
269.307
282.515
280.165
276.101
272.348
280.164
280.34
267.769
272.46
268.452
256.942
270.744
301.445
309.214
333.504
325.365
317.379
337.735
310.121
312.716
308.493
311.832
316.622
314.137
306.525
325.034
326.339
316.548
329.335
329.274
314.969
315.348
315.733
318.067
322.918
309.621
317.607
327.595
321.183
342.759
316.453
331.637
317.995
329.274
331.103
351.782
342.808
337.897
342.82
341.262
338.124
351.861
353.7
336.896
335.094
338.916
341.838
337.81
339.47
330.667
329.027
329.524
332.707
1.97666
0.816208
2.34329
2.53241
2.54215
2.81452
2.64245
2.43253
2.45877
3.22786
2.93926
3.77273
2.85087
3.58392
2.88434
3.05462
3.85378
2.5065
5.54499
6.55704
10.3007
11.1374
13.9843
26.7087
19.9094
42.3244
42.0492
44.5378
48.1626
53.4887
57.1003
56.7964
59.1372
63.672
58.5774
61.8908
60.013
62.9589
161.607
56.7299
55.107
61.4448
222.794
235.518
290.502
280.575
247.063
246.274
207.286
190.289
220.703
244.216
259.754
263.234
253.912
245.207
240.653
237.815
209.179
190.179
280.861
285.718
292.958
292.896
277.648
277.23
290.277
282.666
286.586
274.324
264.37
282.246
269.414
270.136
294.441
263.317
309.609
253.712
263.206
300.905
278.96
321.06
327.365
336.626
323.105
314.467
313.823
314.181
320.274
315.029
315.939
328.602
322.318
319.592
323.723
331.282
321.305
321.247
323.72
322.627
330.332
310.868
326.129
327.745
337.561
345.168
321.875
332.725
339.317
330.831
336.882
354.252
347.089
341.679
348.229
342.794
346.233
354.734
348.173
336.116
343.466
318.877
344.725
327.534
368.942
332.761
361.135
332.003
2.21
2.10863
0.815247
2.37554
0.907387
2.55704
0.724251
2.58959
1.76417
1.85439
2.04761
2.64449
2.64107
4.11194
4.51129
5.34873
5.66424
6.4057
6.70231
7.31991
8.83797
9.44156
21.9342
16.5597
28.384
35.5027
37.2578
45.5177
53.3503
60.2817
72.1749
66.5948
70.5655
79.0667
78.3218
83.2938
71.0565
73.9236
69.5028
70.5543
77.3656
72.8675
151.866
142.828
171.083
284.097
239.388
186.304
205.744
230.587
252.339
268.277
262.928
266.044
238.527
246.088
225.005
228.54
135.236
189.799
271.569
265.191
282.331
274.098
258.871
274.15
268.694
291.2
283.046
290.239
283.893
268.53
285.232
265.999
276.388
295.089
304.505
315.819
322.087
273.026
281.045
279.453
283.536
328.359
319.647
322.969
317.184
314.609
321.462
320.913
317.687
317.316
319.798
322.145
320.249
324.472
331.098
318.604
324.415
320.308
329.581
327.312
332.615
324.523
330.022
336.889
331.898
333.647
340.356
339.948
338.116
338.811
345.034
346.209
346.828
348.596
347.271
347.263
345.225
348.545
316.198
337.322
318.205
312.945
348.859
366.564
377.026
359.937
0.723008
0.528546
0.737571
1.03962
0.775006
0.668346
0.544177
1.45293
1.65887
1.59293
1.44095
1.55478
2.02365
3.12063
3.7904
4.40064
4.81741
5.93433
6.40346
6.76508
8.19206
5.66535
6.01458
6.21103
10.8722
14.4771
19.8355
20.7706
25.3139
265.092
36.3885
78.3253
76.9576
84.0702
86.1829
83.5514
81.297
81.9134
75.4933
72.7507
70.7355
158.265
160.312
140.08
188.781
56.7173
58.2032
50.9677
197.358
237.363
219.088
252.853
251.322
239.936
239.816
239.898
222.537
225.671
193.58
218.749
257.819
233.541
271.424
255.408
247.772
265.156
281.503
269.313
268.975
281.642
295.608
277.057
296.642
277.365
263.119
274.044
296.334
300.736
311.623
318.048
296.285
283.511
289.105
285.464
298.304
316.89
304.884
315.93
317.584
321.084
323.087
316.472
323.328
317.91
323.595
316.944
325.913
326.341
324.266
321.208
322.601
328.205
334.235
331.299
330.966
329.721
331.261
330.704
337.842
339.136
335.942
337.226
341.894
344.355
344.676
346.214
349.336
345.684
349.653
342.891
347.919
336.656
311.14
325.753
335.259
346.665
361.817
374.618
0.339255
0.860432
0.887343
1.19442
1.16742
1.47989
1.8234
2.25425
2.11803
2.60072
2.31514
2.54759
2.82008
1.93467
1.69898
1.67042
2.21024
3.00896
2.66323
3.78948
5.30389
3.74023
5.91862
10.0016
12.6462
16.9857
20.4586
27.8789
301.07
271.977
338.487
272.294
238.793
263.053
92.8423
197.199
165.61
207.328
139.541
175.643
203.374
213.783
181.345
28.5617
57.8189
38.9828
55.2828
134.088
211.409
68.3569
218.394
173.498
237.616
217.536
247.083
236.51
240.803
239.174
243.331
251.68
239.685
236.093
253.48
242.154
261.063
247.186
284.887
277.156
275.576
264.272
282.004
292.147
303.196
295.071
277.559
262.285
306.063
291.244
285.514
310.788
284.055
295.826
290.993
290.98
300.021
300.729
300.617
304.376
315.262
315.916
323.476
320.601
324.185
321.283
327.024
321.426
316.409
326.21
321.017
325.276
334.138
321.719
329.776
333.053
332.481
330.115
330.396
330.631
331.439
338.379
339.93
335.605
340.168
341.507
344.576
343.682
346.854
348.337
350.83
348.854
352.329
347.457
340.806
328.062
346.154
335.738
346.095
363.633
0.213991
0.591681
0.793733
1.1463
1.44712
1.54877
1.95265
2.1188
2.5113
2.87213
2.92277
3.49954
3.51379
3.44443
3.35559
3.36732
3.58655
2.5193
2.1601
1.45732
2.3876
1.12837
1.29778
2.29538
6.18699
7.69492
9.95386
6.3028
266.031
244.291
321.207
321.104
286.858
232.249
113.524
99.6169
84.8946
76.729
75.6079
92.7539
121.141
156.901
178.467
194.873
179.705
149.77
203.04
127.818
180.005
72.3571
221.248
164.482
253.592
259.466
258.096
279.638
245.507
240.709
261.5
265.552
244.477
256.138
238.773
246.365
275.548
251.939
267.357
282.553
262.56
277.383
281.664
286.194
270.589
310.366
298.773
286.768
325.359
312.321
301.215
294.417
300.183
285.183
293.139
289.211
305.263
296.764
294.421
297.991
321.248
310.33
318.878
319.535
312.534
322.174
312.489
327.642
323.428
317.314
325.959
318.391
324.966
332.701
327.292
331.258
342.423
331.268
329.148
329.749
323.983
331.955
343.706
338.457
341.212
338.88
344.654
342.733
343.801
345.503
344.508
350.466
348.99
352.977
348.386
341.075
350.835
347.695
348.28
349.495
0.17422
0.518447
0.718715
0.119751
0.20922
0.23898
0.517764
0.336775
0.605883
1.9343
2.39054
3.26887
3.75824
3.81507
3.77678
2.06732
1.84072
2.15012
1.03547
1.01104
1.02557
1.12485
0.823003
2.66577
1.98944
2.33483
2.99047
2.04984
15.0984
201.818
283.628
304.384
102.073
277.093
139.024
101.67
253.843
83.3886
66.0269
52.2119
54.2538
62.1763
177.997
62.8012
174.152
62.7133
55.5915
58.8156
66.9432
65.2704
58.4281
57.0843
237.963
245.543
272.155
265.208
231.566
242.291
256.383
258.127
250.957
250.87
244.068
250.023
260.413
275.406
248.032
276.467
277.906
266.057
276.233
283.511
262.313
273.5
308.737
291.193
316.169
322.371
298.209
300.612
303.605
300.147
305.511
293.515
306.548
306.13
303.282
295.601
316.335
322.793
325.285
321.863
321.407
313.911
303.365
313.736
322.65
321.75
328.07
324.776
310.54
328.054
340.902
326.357
344.765
339.824
328.034
328.699
331.351
321.802
331.46
342.475
343.498
340.254
342.849
344.434
343.852
343.96
342.465
344.791
341.05
349.628
355.044
346.819
346.939
351.098
348.812
349.069
0.114541
0.215396
0.055881
0.021316
0.0508285
0.0153247
0.0190285
0.0168569
0.0815978
0.123706
0.0850657
0.135737
0
0
1.23077
1.81293
1.17398
1.17337
0.476806
2.74835
4.20142
3.89658
2.08189
3.8772
4.3531
4.79299
9.38379
8.64572
15.4952
18.7473
19.0055
272.779
100.239
96.1746
77.3975
73.9875
194.707
230.779
48.6581
64.0378
61.7008
70.1367
61.9333
62.7821
60.77
55.8916
55.5951
48.9344
61.882
41.0535
51.6368
37.7263
200.083
149.332
238.573
229.777
218.795
227.565
236.812
215.189
238.167
237.714
241.518
241.681
223.325
260.903
232.564
247.569
271.122
273.987
276.709
273.667
272.967
254.125
259.588
309.772
317.225
320.201
327.58
295.279
300.128
300.184
304.784
302.399
300.065
306.673
277.04
308.092
313.964
323.075
343.909
327.544
324.491
324.086
329.379
303.091
317.759
320.938
323.959
327.587
327.486
306.559
328.581
336.368
331.699
345.697
331.384
329.892
339.116
331.56
338.303
332.078
336.325
343.441
342.961
343.457
347.37
343.435
345.289
341.261
340.849
339
347.892
352.636
349.579
345.101
345.889
346.918
0.0360644
0.0587514
0.0565919
0.0438244
0.624741
0.665505
0.719869
1.02785
0.9744
1.12169
1.26383
1.11189
1.57623
1.12994
1.31446
1.25468
0.273975
0.888152
1.06217
1.44383
4.23764
3.65904
5.02133
3.52951
7.77429
6.037
8.8304
8.00694
9.96901
11.9513
11.7874
17.9221
42.1668
57.3873
43.5499
47.7572
52.5098
34.5523
53.7325
66.5329
65.4424
62.5627
58.1008
50.9921
51.1794
47.9605
45.5499
47.007
43.9431
44.1872
43.073
35.5434
175.898
211.875
221.86
221.005
224.851
204.211
208.408
195.995
236.536
221.765
247.002
245.884
251.344
222.226
259.114
213.243
236.651
261.029
261.029
267.949
263.812
264.881
251.835
254.649
293.262
310.692
325.291
320.221
297.996
297.332
293.758
303.829
298.662
299.658
270.968
275.217
322.244
305.526
337.228
336.392
306.127
321.284
324.87
326.715
326.236
317.93
322.511
323.844
329.297
325.977
332.378
330.577
325.667
333.431
337.023
328.363
338.868
336.158
336.45
336.887
332.026
337.018
342.742
342.355
345.338
347.012
350.263
344.636
346.07
339.754
339.517
348.95
349.976
349.551
353.404
345.138
0.125262
0.0519231
0.0335806
0.0839565
0.136212
0.0652183
0.299649
0.35421
0.321079
0.286641
0.3553
0.347462
0.723909
0.341258
0.983002
0.316613
0.140013
0.349981
1.50949
0.948897
8.28891
3.87524
7.84087
5.76162
5.88759
6.08897
4.95444
5.59799
5.12087
5.5716
8.48458
25.337
42.7449
45.5827
53.4828
53.9996
58.8989
58.2049
60.5011
54.1639
57.1747
51.8179
46.4961
54.9178
48.5867
49.1095
47.7535
34.0519
42.5747
24.3269
31.5489
28.6353
209.037
178.103
228.677
204.713
215.965
206.746
208.183
216.39
218.626
218.879
243.323
242.484
252.697
248.898
269.316
259.022
270.848
237.457
257.642
257.677
248.678
261.681
284.274
238.727
266.833
288.505
288.687
325.728
299.495
299.849
305.51
293.481
304.319
294.985
266.671
265.54
317.084
318.769
326.75
339.052
312.26
307.485
327.19
323.205
316.997
325.609
327.617
322.424
327.937
329.201
332.38
332.975
328.818
326.164
326.259
338.168
346.376
340.381
340.995
337.721
335.769
332.689
342.038
342.562
345.007
345.276
347.994
350.301
346.878
347.241
345.96
341.019
351.807
349.167
355.043
352.062
0.178048
0.166915
0.0487991
0.0617687
0.0579449
0.0586271
0.260436
0.260802
0.293582
0.287748
0.301999
0.251489
0.274133
0.289335
0.757918
1.16043
1.00274
1.32911
2.01701
1.78163
4.55006
7.88941
3.72479
5.63791
3.37627
4.50674
4.13438
4.79669
6.24866
9.01101
20.7995
28.4319
37.238
40.2366
46.2705
43.0777
49.0362
40.4321
42.9951
45.2145
44.8137
48.8649
48.3084
48.7067
43.2111
50.8059
175.656
220.63
174.79
216.454
30.6714
33.1976
144.574
41.506
197.928
105.296
215.568
230.163
220.171
233.589
214.914
223.23
235.915
232.854
246.752
249.778
257.957
269.869
267.935
274.105
267.722
266.594
272.69
254.892
276.468
289.106
283.699
278.368
292.707
295.184
302.328
296.223
306.597
301.397
305.101
302.069
278.554
262.874
293.748
318.989
324.48
329.094
320.729
309.947
324.894
326.202
321.938
315.27
318.335
325.906
329.685
326.661
331.315
330.831
322.446
328.131
331.307
324.759
344.766
343.134
333.597
339.913
339.106
334.365
341.16
341.255
343.789
344.291
346.192
347.494
346
345.908
345.941
344.661
353.431
350.952
354.614
354.71
0.113765
0.180659
0.170448
0.184614
0.184748
0.193359
0.182377
0.193574
0.232898
0.221645
0.233354
0.194626
0.208145
0.210804
0.40939
0.451279
1.30541
0.630237
1.40106
1.68952
1.65983
3.01474
2.9587
1.77191
3.23685
2.82178
4.77134
7.11107
9.2965
19.0365
28.306
31.4071
37.4045
34.4137
39.0099
34.6737
38.8155
27.7668
36.6699
37.3871
39.4537
42.5099
41.1651
42.3107
41.6517
10.4233
167.337
200.841
215.799
40.2413
40.7816
47.602
40.6096
50.3477
132.95
207.743
223.31
232.194
229.592
213.41
230.28
237.106
234.356
240.147
247.768
245.126
242.308
259.212
261.39
268.033
270.909
265.76
279.827
268.71
272.636
276.299
281.34
281.341
289.523
291.839
301.364