# vtk DataFile Version 3.0
vtk output
ASCII
DATASET POLYDATA
POINTS 24578 float
-151.53 81.83 75.23
-146.76 79.98 77.9
-147.26 82.51 76.57
-151.22 79.35 76.36
-146.3 77.32 78.47
-150.76 76.75 77.01
-146.01 74.82 79.56
-150.4 74.19 77.98
-145.43 72.07 79.86
-149.95 71.56 78.66
-145.02 69.6 80.58
-149.55 69.11 79.46
-144.64 67.21 81.53
-149.14 66.64 80.2
-144.27 64.77 82.34
-148.68 64.12 80.8
-144.06 62.18 83.1
-148.26 61.63 81.51
-143.83 59.57 83.96
-148.2 59.14 82.73
-143.54 56.98 84.63
-148.02 56.58 83.6
-143.3 54.28 84.95
-147.52 53.77 83.62
-142.71 51.53 84.98
-147.03 50.98 83.68
-142.34 49.05 85.71
-146.66 48.52 84.06
-142.24 46.57 86.6
-146.26 46.05 84.34
-145.97 43.63 84.94
-141.82 44.09 87.11
-141.56 41.44 87.04
-145.67 41.21 85.5
-140.98 38.76 87.5
-145.29 38.66 85.7
-140.75 36.16 87.85
-144.89 36.1 85.85
-144.62 33.53 86.3
-140.46 33.57 88.45
-140.13 30.94 88.56
-144.22 30.94 86.41
-143.81 28.2 86.49
-139.84 28.2 88.9
-143.44 25.45 86.68
-139.6 25.51 89.44
-143.18 22.67 87.12
-139.22 22.78 89.44
-142.9 19.88 87.51
-138.79 20.04 89.71
-142.6 17.15 87.83
-138.39 17.32 89.75
-137.91 14.61 89.73
-142.25 14.42 88.03
-141.99 11.68 88.46
-137.6 11.89 89.94
-141.61 8.95 88.57
-137.22 9.16 90.05
-141.13 6.27 88.48
-136.86 6.45 90.3
-140.68 3.58 88.47
-136.37 3.76 90.16
-140.25 0.89 88.51
-135.88 1.07 90.03
-139.71 -1.79 88.26
-135.64 -1.76 90.02
-135.64 -4.55 89.75
-140 -4.44 88.09
-135.69 -7.09 89
-140.34 -7.12 88.03
-135.79 -9.62 88.23
-140.37 -9.69 87.25
-135.84 -12.19 87.54
-140.43 -12.27 86.54
-135.99 -14.75 87
-140.5 -14.79 85.8
-136.21 -17.35 86.64
-140.62 -17.33 85.19
-136.42 -19.93 86.21
-140.85 -19.94 84.82
-136.49 -22.42 85.34
-140.79 -22.34 83.7
-136.45 -24.91 84.43
-140.78 -24.79 82.73
-136.55 -27.44 83.74
-140.84 -27.3 81.99
-136.57 -29.97 82.98
-140.97 -29.86 81.42
-136.73 -32.54 82.43
-141.02 -32.36 80.63
-136.76 -35.12 81.64
-141.09 -34.97 79.94
-141.32 -37.69 79.69
-136.83 -37.72 80.96
-141.45 -40.33 79.13
-136.9 -40.34 80.32
-137.11 -43 79.41
-141.48 -42.91 78.35
-141.57 -45.38 77.61
-137.04 -45.54 78.64
-141.59 -47.8 76.7
-137.03 -47.91 77.56
-141.86 -50.43 76.49
-137.15 -50.39 76.9
-141.9 -52.84 75.63
-137.27 -52.84 76.11
-141.91 -55.11 74.4
-137.53 -55.19 75.26
-137.48 -57.49 74.21
-141.9 -57.35 73.07
-142.03 -59.74 72.14
-137.7 -59.92 73.43
-142.25 -62.22 71.44
-137.97 -62.48 72.92
-142.57 -64.67 70.67
-138.15 -65.14 72.4
-142.87 -67.1 69.86
-138.34 -67.41 71.12
-143.16 -69.56 69.09
-138.58 -69.8 70.17
-143.42 -71.97 68.22
-138.72 -72 68.84
-143.42 -74.03 66.78
-138.71 -74.17 67.59
-143.52 -76.26 65.69
-138.9 -76.5 66.65
-143.64 -78.59 64.8
-139.03 -78.91 65.88
-143.64 -80.66 63.43
-139.36 -81.09 64.3
-142.41 80.53 78.87
-142.88 83.09 77.59
-141.83 77.87 79.86
-141.49 75.33 80.8
-140.97 72.61 81.19
-140.47 70.13 81.77
-140.01 67.69 82.47
-139.94 65.21 83.59
-139.84 62.72 84.64
-139.44 60.04 85.13
-139.12 57.42 85.86
-138.88 54.8 86.42
-138.56 52.14 86.78
-138.19 49.56 87.25
-137.83 46.99 87.76
-137.58 44.31 88.01
-137.31 41.63 88.23
-137.03 38.95 89.21
-136.57 36.22 89.77
-136.22 33.57 90.06
-135.88 30.91 90.36
-135.74 28.24 91.1
-135.47 25.56 91.56
-134.94 22.88 91.41
-134.47 20.19 91.43
-134.08 17.49 91.57
-133.61 14.8 91.52
-133.09 12.1 91.2
-132.71 9.37 91.23
-132.3 6.67 91.32
-131.94 3.96 91.53
-131.76 1.11 91.67
-131.5 -1.71 91.62
-131.31 -4.41 90.89
-131.1 -7.09 90.13
-131.35 -9.7 89.79
-131.55 -12.29 89.33
-131.63 -14.81 88.62
-131.74 -17.34 87.96
-131.85 -19.85 87.19
-132.06 -22.42 86.66
-132.19 -25.02 86.17
-132.25 -27.57 85.48
-132.26 -30.09 84.65
-132.44 -32.72 84.26
-132.56 -35.36 83.72
-132.63 -37.97 83.04
-132.75 -40.58 81.94
-132.83 -43.16 80.72
-132.77 -45.71 79.94
-132.75 -48.3 79.25
-132.77 -50.64 78.12
-132.8 -52.99 77
-132.95 -55.32 76.2
-133.13 -57.69 75.53
-133.33 -60.11 74.69
-133.5 -62.48 73.72
-133.64 -65.09 73
-133.72 -67.59 72.04
-133.86 -69.81 70.74
-134.01 -72.03 69.43
-134.18 -74.44 68.63
-134.35 -76.86 67.84
-134.77 -79.33 66.76
-135.07 -81.54 65.2
-138.04 81.11 79.93
-138.51 83.66 78.64
-137.48 78.45 80.95
-136.81 75.7 81.58
-136.53 73.2 82.68
-136.2 70.85 83.66
-136.01 68.35 84.53
-135.78 65.76 85.17
-135.49 63.19 85.82
-135.19 60.56 86.38
-134.98 57.99 87.45
-134.76 55.37 88.25
-134.53 52.77 88.88
-134 50.11 89.1
-133.65 47.3 89.03
-133.3 44.56 89.42
-133.29 41.92 90.17
-132.89 39.2 91
-132.5 36.43 91.58
-132.05 33.68 92.21
-131.7 30.98 92.36
-131.44 28.31 92.66
-131.04 25.67 93.02
-130.62 23.02 93.01
-130.15 20.36 93.11
-129.82 17.66 93.35
-129.27 14.97 93.05
-128.74 12.27 92.73
-128.4 9.55 92.87
-127.96 6.85 92.86
-127.84 4 93.22
-127.59 1.17 93.17
-127.27 -1.64 92.97
-127.25 -4.36 92.57
-127.15 -7.08 92.07
-127.17 -9.83 91.83
-127.29 -12.38 91.16
-127.29 -14.86 90.23
-127.44 -17.42 89.6
-127.57 -19.97 88.96
-127.76 -22.53 88.35
-127.82 -25.1 87.72
-127.85 -27.64 86.95
-127.95 -30.27 86.46
-128.2 -32.95 86.24
-128.25 -35.54 85.49
-128.5 -38.26 84.8
-128.59 -40.83 83.55
-128.62 -43.36 82.3
-128.5 -45.86 81.36
-128.57 -48.51 80.64
-128.51 -50.96 79.6
-128.63 -53.39 78.68
-128.82 -55.89 78.24
-129.15 -58.39 77.85
-129.06 -60.46 76.29
-128.99 -62.4 74.44
-128.98 -64.79 73.19
-129.01 -67.15 71.96
-128.97 -69.58 70.84
-129.28 -72.05 69.98
-129.48 -74.55 69.36
-130.01 -77.21 68.65
-130.42 -79.71 67.63
-130.79 -82.03 66.21
-133.82 81.84 81.46
-134.36 84.47 80.38
-133.19 79.09 82.22
-132.49 76.28 82.7
-131.95 73.65 83.71
-131.93 71.29 85
-131.87 68.9 86.17
-131.5 66.27 86.57
-131.13 63.64 86.94
-130.87 61.02 87.58
-130.68 58.45 88.47
-130.46 55.86 89.34
-130.18 53.24 90.02
-129.88 50.44 90.31
-129.64 47.69 90.79
-129.42 44.94 91.36
-129.23 42.2 92.03
-128.71 39.37 92.41
-128.45 36.65 93.48
-128.03 33.86 94.03
-127.47 31.03 94.24
-127.19 28.41 94.71
-126.88 25.78 95.12
-126.32 23.16 94.88
-125.8 20.53 94.74
-125.36 17.84 94.64
-124.86 15.16 94.43
-124.49 12.44 94.52
-124.2 9.71 94.8
-123.95 6.88 94.78
-123.68 4.05 94.73
-123.4 1.23 94.62
-123.18 -1.6 94.69
-123.37 -4.41 94.84
-123.31 -7.12 94.32
-123.16 -9.79 93.63
-122.95 -12.42 92.76
-123.09 -14.99 92.12
-123.27 -17.57 91.56
-123.4 -20.13 90.9
-123.5 -22.66 90.14
-123.53 -25.22 89.42
-123.57 -27.78 88.7
-123.68 -30.42 88.22
-123.74 -33.02 87.62
-123.94 -35.69 86.77
-124.14 -38.36 85.91
-124.27 -40.96 84.88
-124.51 -43.67 84.17
-124.44 -46.18 83.04
-124.36 -48.68 81.9
-124.32 -51.14 80.87
-124.34 -53.66 80.01
-124.65 -56.22 79.72
-124.85 -58.64 79.12
-124.76 -60.62 77.46
-124.57 -62.46 75.52
-124.49 -64.69 73.94
-124.51 -67.1 72.74
-124.57 -69.65 71.8
-124.65 -72.26 70.99
-125.14 -74.86 70.13
-125.57 -77.36 69.04
-126.01 -79.84 67.96
-126.39 -82.16 66.58
-129.58 82.52 82.46
-130.23 85.32 82
-128.9 79.77 83.09
-128.4 77.11 83.84
-127.98 74.41 84.96
-127.56 71.77 85.9
-127.33 69.24 86.57
-127.15 66.76 87.43
-126.86 64.14 88.01
-126.52 61.49 88.81
-126.36 58.96 89.84
-126.14 56.38 90.8
-125.97 53.53 91.15
-125.51 50.64 91.5
-125.42 47.93 92.31
-125.22 45.19 93.14
-125.05 42.45 93.81
-124.64 39.66 94.38
-124.31 36.88 95.2
-123.77 34.05 95.42
-123.26 31.23 95.69
-122.78 28.52 96.11
-122.44 25.87 96.38
-121.98 23.27 96.26
-121.42 20.65 96.06
-121.04 17.96 96.08
-120.68 15.29 96.36
-120.38 12.57 96.56
-120.17 9.75 96.72
-119.91 6.93 96.66
-119.55 4.12 96.37
-119.27 1.3 96.28
-119.07 -1.54 96.32
-119.25 -4.36 96.51
-119.22 -7.1 96.08
-119.04 -9.77 95.31
-119 -12.5 94.8
-118.91 -15.21 94.19
-119.08 -17.79 93.59
-119.2 -20.38 92.98
-119.3 -22.91 92.18
-119.31 -25.47 91.43
-119.31 -28 90.63
-119.33 -30.55 89.87
-119.45 -33.15 88.84
-119.6 -35.8 87.91
-119.83 -38.5 87.17
-120.05 -41.2 86.43
-120.26 -43.87 85.57
-120.32 -46.42 84.63
-120.24 -48.94 83.59
-120.24 -51.46 82.7
-120.29 -53.99 81.83
-120.1 -56.26 80.6
-120.22 -58.48 79.45
-120.33 -60.66 78.2
-120.24 -62.81 76.84
-120.26 -65.2 75.6
-120.18 -67.48 74.2
-120.23 -70.02 73.25
-120.52 -72.67 72.16
-120.81 -75.19 70.96
-121.18 -77.58 69.65
-121.52 -79.9 68.24
-121.92 -82.27 66.97
-125.25 83.17 83.41
-125.88 85.88 82.84
-124.6 80.45 83.94
-124.22 77.72 84.75
-123.94 75.09 85.93
-123.46 72.43 86.81
-122.93 69.71 87.46
-122.73 67.14 88.15
-122.59 64.64 89.06
-122.25 62 89.9
-121.95 59.4 90.9
-121.96 56.7 91.92
-121.73 53.8 92.2
-121.47 50.99 93.04
-121.27 48.22 94.07
-121.07 45.45 94.8
-120.88 42.69 95.58
-120.53 39.9 96.26
-120.06 37.06 96.59
-119.52 34.23 96.77
-119.19 31.45 97.53
-118.64 28.71 97.7
-118.07 25.97 97.81
-117.65 23.36 97.86
-117.2 20.75 97.82
-116.76 18.09 97.81
-116.45 15.42 98.16
-116.25 12.62 98.27
-115.94 9.82 98.09
-115.72 7.01 98.16
-115.43 4.19 98.08
-115.24 1.34 98.13
-115.02 -1.5 98.11
-115.03 -4.27 97.86
-115.05 -7.04 97.62
-115.01 -9.78 97.12
-114.91 -12.5 96.46
-114.83 -15.21 95.87
-114.79 -17.94 95.36
-114.95 -20.55 94.79
-115.09 -23.14 94.17
-115.09 -25.69 93.41
-115.09 -28.25 92.66
-115.19 -30.82 91.55
-115.34 -33.43 90.58
-115.56 -36.16 89.86
-115.65 -38.76 88.81
-115.73 -41.32 87.6
-115.89 -43.96 86.62
-115.94 -46.5 85.75
-115.97 -49.02 84.82
-116.06 -51.62 84.1
-116.16 -54.22 83.41
-116 -56.46 81.98
-115.78 -58.59 80.34
-115.73 -60.7 78.9
-115.82 -63.01 77.89
-115.91 -65.56 77.02
-115.85 -67.86 75.66
-116.07 -70.39 74.35
-116.45 -73.24 73.66
-116.73 -75.78 72.45
-116.87 -78.01 70.66
-117.13 -80.1 68.85
-117.46 -82.37 67.36
-120.93 83.58 83.84
-121.35 86.18 83.25
-120.43 80.92 84.76
-120.24 78.29 85.68
-119.85 75.73 86.84
-119.39 73.08 87.68
-118.97 70.39 88.56
-118.52 67.71 89.38
-118.27 65.1 89.93
-117.89 62.43 90.71
-117.77 59.68 91.68
-117.62 56.89 92.64
-117.53 54.11 93.38
-117.25 51.28 94.27
-116.99 48.44 95.07
-116.61 45.56 95.63
-116.37 42.76 96.18
-116.01 39.98 96.85
-115.62 37.17 97.41
-115.23 34.39 98.02
-114.97 31.62 98.96
-114.53 28.91 99.33
-113.9 26.15 99.26
-113.4 23.47 99.53
-113.04 20.85 99.72
-112.61 18.2 99.71
-112.34 15.45 99.77
-112.11 12.66 99.75
-111.7 9.9 99.43
-111.54 7.08 99.65
-111.31 4.26 99.65
-111.1 1.42 99.6
-110.91 -1.42 99.76
-110.84 -4.17 99.3
-110.76 -6.92 98.71
-110.8 -9.71 98.47
-110.76 -12.46 97.96
-110.67 -15.19 97.39
-110.65 -17.93 96.92
-110.56 -20.62 96.27
-110.66 -23.19 95.59
[...]
CELL_DATA 49152
SCALARS Temperature float 1
LOOKUP_TABLE default
0.00147731
0.00136185
0.00409149
0.000759756
0.00105733
0.000798647
0.00120645
0.000897816
0.000928837
0.00467751
0.00433377
0.00394054
0.00368335
0.00279501
0.000578911
0.000736814
0.000815665
0.00288057
0.00398941
0.00432259
0.00448552
0.000630091
0.000134772
0.00011718
0.000126244
0.000209983
0.000289226
0.000264432
0.00028741
0.00031448
0.000178561
0.000209671
0.000123901
4.7669e-05
0.000169714
5.67744e-05
7.20231e-05
0.000220696
0.000122361
4.37792e-05
3.37642e-05
6.61777e-05
4.81208e-05
7.26976e-05
5.76179e-05
2.43192e-05
4.76536e-05
4.1281e-05
3.97932e-05
4.09021e-06
5.6315e-06
4.89167e-06
2.56091e-05
2.7084e-06
2.83001e-06
3.02486e-06
1.81802e-06
1.50766e-06
1.4102e-06
4.5539e-06
2.78361e-07
1.92954e-06
1.08598e-06
4.24091e-07
6.33576e-07
5.29872e-07
1.45483e-05
1.63118e-05
2.50426e-05
2.61488e-05
2.60529e-05
2.6831e-05
2.71147e-05
2.57347e-05
2.59554e-05
2.15488e-05
2.28543e-05
2.43189e-05
0.000172531
0.000181407
0.000164851
0.00017137
0.000136693
0.000154604
0.000166891
0.0001011
6.31547e-05
0.00019893
0.000206773
7.3956e-05
4.89085e-05
6.82042e-05
0.000154287
0.000189134
0.000312838
0.000299035
0.000328802
0.000325718
0.000599557
0.000666816
0.00217169
0.00120281
0.0161303
0.0128217
0.0199148
0.0110795
0.012664
0.00355898
0.00354517
0.00351699
0.00327657
0.00358912
0.00190353
0.000705122
0.000581222
0.00109371
0.003385
0.0177966
0.0201392
0.355373
0.358625
0.191777
0.191302
0.0823409
0.0681667
0.0759623
0.0857281
0.0933965
0.00115298
0.00123036
0.00629426
0.00491192
0.000908347
0.00125056
0.00579525
0.000983111
0.000832662
0.000923759
0.000804019
0.000993276
0.000974597
0.00414893
0.00300896
0.000614399
0.00262789
0.00422857
0.00439004
0.00412425
0.000199761
0.000647102
0.000468937
0.000188395
0.000501435
0.000432884
0.00042806
0.000595842
0.000457881
0.000495365
9.71991e-05
0.000267373
7.19253e-05
9.33768e-05
0.000176923
0.000195381
0.000210287
4.85883e-05
5.1757e-05
4.94639e-05
5.75781e-05
0.000217576
0.000195613
0.000178642
5.12372e-06
2.81282e-06
3.83217e-06
1.30889e-06
7.82558e-07
2.87491e-06
2.85239e-06
3.04267e-06
2.30631e-06
3.1735e-06
3.60284e-06
3.81185e-06
4.02565e-06
4.04793e-06
3.76679e-06
3.82978e-06
2.06591e-06
4.91271e-06
3.29663e-06
8.16749e-07
9.85146e-06
1.11909e-05
1.22594e-05
1.3135e-05
1.20249e-05
1.36042e-05
9.72539e-06
1.11786e-05
1.33806e-05
1.76729e-05
2.09306e-05
2.69596e-05
2.7856e-05
3.27325e-05
3.35117e-05
0.000171064
3.36563e-05
0.000210952
0.000165323
0.000166488
0.000214365
0.000168923
4.40481e-05
0.000139228
0.000151198
0.000299007
0.000290922
0.000306557
0.000399973
0.000276684
0.0079247
0.000345384
0.000363617
0.000366381
0.000451715
0.000455377
0.000488425
0.0224084
0.00052631
0.0234532
0.0151169
0.0156212
0.0134343
0.00290621
0.00438727
0.00566264
0.00543131
0.0340012
0.0934844
0.251881
0.324648
0.196842
0.204831
0.357967
0.365378
0.225672
0.22605
0.0905425
0.077171
0.0848956
0.0799275
0.099182
0.075801
0.0704771
0.000922203
0.00096525
0.00472659
0.00467822
0.00715065
0.00812275
0.00560224
0.00102376
0.000860164
0.000973826
0.000980618
0.000912005
0.000877873
0.000931029
0.00102725
0.00373664
0.00507617
0.00468654
0.00329456
0.000781276
0.000762832
0.000718558
0.000667498
0.000630358
0.000493093
0.0005005
0.000181943
0.00034013
0.000113391
0.000111907
0.000399751
7.90541e-05
9.88397e-05
0.000387058
0.000287913
0.000305392
0.000140723
0.000315582
0.000174584
0.000104081
0.000210906
2.78001e-05
0.000101458
3.13856e-05
1.72112e-05
3.15271e-06
1.22667e-06
5.52967e-07
5.73221e-07
2.577e-06
1.84486e-05
4.07879e-06
3.67116e-06
3.28641e-06
2.83919e-06
2.99515e-06
2.73255e-06
3.40408e-06
3.76654e-06
1.0501e-05
9.97766e-06
7.07407e-06
6.24753e-06
8.07947e-06
1.20557e-05
1.14517e-05
1.21011e-05
6.56146e-06
1.06417e-05
9.85152e-06
4.266e-05
8.97566e-06
0.000136233
2.45431e-05
3.44578e-05
2.31376e-05
3.8124e-05
1.75504e-05
2.22482e-05
2.38495e-05
2.34698e-05
2.91067e-05
0.000127607
4.16767e-05
3.05595e-05
0.000165555
4.66569e-05
4.55322e-05
0.000254233
0.000123552
0.000172184
0.000247311
0.0182568
0.015172
0.0197319
0.00817262
0.000401279
0.000393054
0.000371589
0.000374044
0.0216658
0.0243824
0.0198427
0.0269374
0.00985323
0.000758902
0.0109139
0.000887775
0.0753809
0.0319392
0.0781466
0.0298652
0.019168
0.054679
0.339436
0.240621
0.414566
0.0809851
0.0607853
0.0882329
0.0755496
0.0860733
0.354955
0.292889
0.277139
0.229638
0.0484611
0.0405003
0.00111996
0.00109039
0.00413392
0.00314913
0.00668765
0.00624293
0.00496848
0.00482324
0.00277835
0.00172773
0.00238163
0.00100482
0.00322172
0.00412618
0.00527165
0.00549451
0.00554264
0.00518552
0.00458732
0.00598752
0.00493639
0.00456135
0.00444139
0.004078
0.00102491
0.0009231
0.000920946
0.000171715
0.000194426
0.000390476
0.00045495
0.00040407
0.00039855
0.000118719
0.000112568
0.000418505
0.000309151
0.000262541
5.39404e-05
3.41757e-05
0.000129751
0.000172912
0.000146969
0.000166137
3.84593e-06
2.43356e-06
3.03568e-06
1.60158e-06
3.62947e-06
5.80508e-06
5.69714e-06
5.05092e-06
5.43773e-06
3.81849e-06
2.78351e-06
1.22046e-05
3.33404e-06
3.36855e-06
1.53427e-05
8.07922e-06
7.96426e-06
3.01419e-06
3.49282e-06
2.88292e-06
1.55894e-05
6.92775e-06
0.000102897
2.62478e-05
5.06192e-05
1.21467e-05
0.000176641
6.95397e-05
3.5029e-05
0.00017854
7.43998e-05
0.000138806
0.000156152
0.000151307
0.000185803
0.000106997
0.000157549
0.00012662
0.000121452
0.000137559
3.91127e-05
4.1997e-05
3.75487e-05
3.19015e-05
0.000151378
0.000157171
0.00139296
0.0017463
0.00203647
0.0179068
0.000400761
0.0212211
0.0216774
0.00795124
0.00919009
0.000369818
0.00768859
0.00842928
0.000365058
0.000342594
0.000429462
0.000489543
0.00189165
0.00347026
0.0969974
0.0893302
0.102758
0.0855054
0.069972
0.0567263
0.0622398
0.0620923
0.0741242
0.0755537
0.0882479
0.0793996
0.0874907
0.0713756
0.0779496
0.611528
0.723318
0.80975
1.12442
1.12492
0.00867044
0.00555727
0.0104404
0.00973039
0.00939301
0.00742699
0.00252275
0.00203852
0.002757
0.00301858
0.00828042
0.00968714
0.0099794
0.00813852
0.00798898
0.00649563
0.0063069
0.00540846
0.00511416
0.00370715
0.00351045
0.00244498
0.00369885
0.0043426
0.0010669
0.00104219
0.000880731
0.000478
0.00040331
0.00057117
0.000406789
0.000400587
0.000155412
0.000336038
0.000418221
0.000370027
0.000220921
0.00124561
0.00149519
0.000100894
0.000425856
0.000248626
0.000238587
0.000235336
0.000261426
4.29836e-05
6.45221e-06
6.49113e-06
6.80922e-06
5.85427e-06
6.38196e-06
2.09415e-05
1.4064e-05
2.24658e-05
2.07767e-05
2.16463e-05
1.11165e-05
2.2222e-06
3.03121e-06
2.21992e-06
2.90193e-06
3.02901e-06
2.81353e-06
3.25493e-06
1.66474e-05
1.82514e-05
4.03725e-06
2.01412e-05
0.000152873
0.000130067
2.33266e-05
0.000191102
0.00015818
0.000147263
0.000137069
0.000117438
0.000147898
0.000167027
0.000200253
0.000192577
0.000185256
0.000150089
0.000166844
5.04311e-05
1.9417e-05
3.1444e-05
0.000176043
4.14527e-05
0.000128989
0.000100375
5.92565e-05
0.000647655
0.00161467
0.000301415
0.000266306
0.00029664
0.00346517
0.0081003
0.00773502
0.00889255
0.000428112
0.000492207
0.000448745
0.000451429
0.000492235
0.016865
0.00833197
0.0393876
0.0568774
0.094713
0.0770451
0.105845
0.0778554
0.0890877
0.0911897
0.0734975
0.0755905
0.0804631
0.07914
0.0888014
0.0825838
0.0947466
0.10704
0.0985895
0.526871
0.79089
0.920794
0.885488
0.0135584
0.0129623
0.0126906
0.0119493
0.010743
0.00981033
0.00670708
0.00506223
0.00707866
0.00738116
0.00846411
0.00869558
0.00872199
0.00910277
0.00904767
0.00705753
0.00693085
0.00638015
0.00629355
0.00655659
0.00628832
0.00556974
0.00527928
0.00492986
0.00140769
0.000654376
0.000457294
0.00103246
0.000738134
0.000572176
0.000409884
0.000595212
0.000284189
0.000352035
0.000363382
0.00151631
0.00125645
0.0016021
0.00181607
0.000596368
0.000255061
3.37191e-05
3.61153e-05
0.000224362
6.81507e-05
3.24149e-05
2.56081e-05
2.06888e-05
2.50249e-05
2.3363e-05
2.82352e-05
2.99344e-05
2.56859e-05
2.48934e-05
6.51718e-06
2.67356e-05
2.64292e-05
2.02909e-05
3.41681e-06
2.87347e-06
2.50655e-06
2.27954e-06
3.22328e-06
3.31029e-06
5.71998e-07
1.32002e-06
3.6291e-07
0
5.25107e-08
0.000157469
9.53824e-05
2.24033e-05
5.76268e-05
8.01034e-05
1.41376e-05
4.01112e-05
3.35119e-05
9.4186e-05
9.71137e-05
0.000197382
0.000202483
0.000202031
0.000208844
0.000210937
0.000238805
0.000146
0.000189347
0.00018898
0.000192911
0.000234947
0.000315831
0.000205908
0.000503045
0.00200833
0.00228245
0.00248708
0.00266655
0.0026213
0.00274582
0.002483
0.00230014
0.00191348
0.00132815
0.000537848
0.077298
0.0666544
0.0877556
0.0470279
0.0757612
0.0610622
0.0723658
0.0389407
0.0706012
0.0515584
0.0962424
0.0978427
0.0814189
0.0868207
0.0790448
0.0796763
0.127396
0.145274
0.224143
0.140458
0.237358
0.56624
0.662121
0.788825
0.0164668
0.0159685
0.0142039
0.0139895
0.0093371
0.00858929
0.00627148
0.00630932
0.00863439
0.0085219
0.00867595
0.00718628
0.0066986
0.00649877
0.00716508
0.00849138
0.00849954
0.00839375
0.00796989
0.00780477
0.00688382
0.00710174
0.00629858
0.00114084
0.00114391
0.00115918
0.00120032
0.00130527
0.00134435
0.00148968
0.0015374
0.00165213
0.00174282
0.00183848
0.00288055
0.00280194
0.00296238
0.00282412
0.00301684
0.00310345
9.38893e-06
2.12043e-05
3.30539e-05
0.00026486
4.40186e-05
5.00506e-05
2.32493e-05
3.10529e-05
2.63294e-05
2.43691e-05
3.01817e-05
2.01543e-05
2.50791e-05
2.7251e-05
3.77528e-05
3.50708e-05
2.92989e-05
1.54663e-05
6.17084e-06
1.13301e-05
1.37639e-05
1.14204e-05
1.23439e-05
2.01698e-05
3.99539e-08
2.30309e-08
1.24238e-07
2.61877e-07
1.06674e-07
2.18606e-06
3.56852e-07
5.35592e-06
5.226e-07
6.29125e-06
5.43909e-06
1.02844e-05
9.5567e-06
1.76419e-05
2.49961e-05
2.55015e-05
3.48439e-05
3.6707e-05
3.6113e-05
3.52113e-05
8.74572e-05
0.000264297
0.00022676
0.000224027
0.000154131
0.000178113
0.00662131
0.000324969
0.00206789
0.0022749
0.00225429
0.00229564
0.00244518
0.00240273
0.00246691
0.00264355
0.00285069
0.00323551
0.00357086
0.00500978
0.00818678
0.0796144
0.0875686
0.0919414
0.0755346
0.0884194
0.0771828
0.0606026
0.0482682
0.0686438
0.0901586
0.0878456
0.083937
0.0685036
0.16219
0.319799
0.390041
0.0961696
0.355071
0.3609
0.337657
0.549637
0.525235
0.181155
0.015657
0.0156533
0.0112096
0.010995
0.0111131
0.0108594
0.0107413
0.0110215
0.0114845
0.0109472
0.0104738
0.00915361
0.0090708
0.00786634
0.0087359
0.00883681
0.00836031
0.00729774
0.00723409
0.00712906
0.00710609
0.00679289
0.00137596
0.00132196
0.00137035
0.0013586
0.00139443
0.00145538
0.00152844
0.00155617
0.00161865
0.00156538
0.00161705
0.00157592
0.00254607
0.00288054
0.00312227
0.00319656
0.00327525
0.0037525
0.00391761
0.00520779
0.00270899
0.00028762
0.000345251
0.000453827
0.000372574
0.000411867
2.16254e-05
3.85922e-05
2.02289e-05
1.70547e-05
0.000100354
5.94077e-05
4.16953e-05
3.68722e-05
1.09084e-05
2.31534e-05
1.2712e-05
5.05983e-06
3.57723e-06
2.57287e-06
1.68111e-05
3.48993e-07
2.67286e-07
2.84262e-07
1.31502e-07
9.15905e-08
6.98718e-08
8.86945e-08
1.68996e-07
2.80253e-07
7.58905e-08
3.97786e-07
5.8035e-06
1.19045e-05
0.000107684
9.50058e-06
0.000133117
3.44108e-05
3.89216e-05
3.63418e-05
3.86946e-05
4.44255e-05
0.00054222
0.0006829
0.00110829
0.00126135
0.000743372
0.000809736
0.00263195
0.00491756
0.00268787
0.00240749
0.00205356
0.00190849
0.00210948
0.00219609
0.00217267
0.002276
0.00245757
0.00296556
0.00327884
0.00532643
0.00628871
0.0537384
0.0649732
0.0997111
0.0768039
0.0927003
0.10582
0.0821843
0.100488
0.0779387
0.091411
0.0985806
0.107509
0.0565694
0.0333407
0.101365
0.502137
0.0756543
0.382982
0.121646
0.136939
0.108224
0.172372
0.184053
0.00563242
0.0107725
0.0102572
0.00665347
0.00795192
0.0084592
0.00717142
0.00697572
0.0102393
0.0106685
0.0117462
0.0124157
0.0125552
0.0124376
0.0116082
0.00923672
0.00762251
0.00717473
0.00181869
0.00780033
0.00144182
0.00715216
0.00146847
0.00140607
0.00147057
0.00141328
0.0014271
0.00137309
0.00143619
0.00118605
0.0012629
0.00112175
0.00121628
0.00137225
0.00210621
0.00253177
0.00300376
0.00341576
0.00244178
0.00280679
0.00275456
0.00293694
0.000724268
0.000900252
0.000582163
0.00039719
0.000430818
0.000442278
0.000390912
0.000393668
0.000265136
0.000234605
0.000203807
0.000200174
0.000134492
8.79672e-05
3.02185e-05
4.91173e-05
9.51595e-06
4.22254e-05
2.66668e-06
1.97996e-06
2.00455e-07
1.03404e-07
7.74203e-08
7.9819e-08
8.65883e-08
6.6829e-08
6.34986e-08
6.46186e-08
3.52129e-08
3.36435e-08
6.34448e-08
8.65843e-08
1.02808e-07
1.26064e-07
2.31976e-06
6.14233e-05
0.000132601
0.000247715
0.000252545
0.000134874
0.000165465
5.04144e-05
6.10151e-05
5.4013e-05
0.000551315
0.000851268
0.000679095
0.000602166
0.00174074
0.00195651
0.0016701
0.00192385
0.00182106
0.00252494
0.00166813
0.00290263
0.00152428
0.00253984
0.00149064
0.00230427
0.0190238
0.00216354
0.00660977
0.00810965
0.034397
0.018279
0.0554685
0.0591044
0.111207
0.0838646
0.0744135
0.0909229
0.0804305
0.0724027
0.0951989
0.0985043
0.0904891
0.0832075
0.0735614
0.100899
0.0933579
0.110665
0.121644
0.13096
0.140177
0.425888
0.0145028
0.0165868
0.0182499
0.0168683
0.0149304
0.0139927
0.0133995
0.0132416
0.0133831
0.0121709
0.0104649
0.00735588
0.00677125
0.00392604
0.00346729
0.00367415
0.00288056
0.00225317
0.00140781
0.00300207
0.00188461
0.00330353
0.00222972
0.00167949
0.00189962
0.00138711
0.00128352
0.0012786
0.00141977
0.00152406
0.00152998
0.00155377
0.00166326
0.00182646
0.0030363
0.00358283
0.00381782
0.00443307
0.00486226
0.00592534
0.00637573
0.00828739
0.000714361
0.000336165
0.00058576
0.000513003
0.000383101
0.00046077
0.000360464
0.000410641
0.000285888
2.79929e-05
0.000284414
0.000363936
0.000296353
0.000258826
7.00469e-05
7.97869e-05
7.6353e-05
0.000426925
1.39243e-06
8.95581e-07
7.99075e-07
4.90802e-07
1.0236e-07
9.6747e-08
1.21174e-07
9.67075e-08
1.01838e-07
2.95451e-08
3.95506e-08
3.52116e-08
7.36861e-08
7.22458e-08
2.97299e-08
2.07032e-08
6.19878e-08
7.65945e-08
9.45965e-08
8.17663e-06
6.32246e-06
0.000453626
0.000408472
0.000231253
0.000190722
0.000107203
0.00024853
0.000154814
0.000393151
0.000284134
0.000545358
0.00111877
0.000467571
0.000494076
0.00141424
0.000584794
0.000747829
0.000686957
0.02136
0.0137226
0.03038
0.0132157
0.0467664
0.0538812
0.0733246
0.0817701
0.0553064
0.065828
0.0787148
0.054262
0.0696492
0.121183
0.143244
0.102297
0.153622
0.104429
0.115934
0.110982
0.121098
0.0939618
0.117885
0.138375
0.169543
0.188682
0.544487
0.173673
0.508288
0.146911
0.0232878
0.0225135
0.0165584
0.0195497
0.0152212
0.015134
0.0135557
0.0130981
0.01149
0.0103087
0.0106003
0.00743301
0.00303467
0.00412391
0.00381215
0.00338994
0.00319248
0.00347072
0.00353284
0.00392868
0.00341999
0.00303377
0.00161165
0.00177763
0.00157088
0.00126291
0.00121051
0.00115974
0.00103055
0.00146084
0.00194829
0.00183646
0.00204153
0.00239572
0.00440325
0.0052737
0.00499566
0.00701613
0.00813234
0.00969761
0.0132456
0.0150703
0.0123401
0.0130891
0.0119445
0.00168658
0.000918661
0.00312238
0.00242832
0.000176637
3.34635e-05
0.000397087
0.000407277
0.000472883
0.000353227
0.000493516
0.00250349
0.00224012
0.00313993
0.0023279
8.80356e-05
7.44037e-05
6.18357e-05
4.47775e-05
3.29604e-05
5.39969e-06
7.18046e-06
1.40472e-07
1.17182e-07
1.30053e-07
1.28966e-07
5.77631e-08
3.13253e-08
5.21194e-08
2.164e-08
2.24317e-07
4.01525e-07
4.66696e-07
4.7063e-07
1.05822e-07
3.06484e-07
4.11334e-07
2.80023e-07
0.000419286
0.000357192
0.000400898
0.000360708
0.000324098
0.000420558
0.000416847
0.00834086
0.0081159
0.0111097
0.0101408
0.0271068
0.0288296
0.0556215
0.0179981
0.0367475
0.0220144
0.0525665
0.0462111
0.0586299
0.0184985
0.0482886
0.0709861
0.0645052
0.0706922
0.089609
0.0897209
0.0862355
0.0917006
0.164569
0.178507
0.13821
0.144432
0.146407
0.144519
0.136844
0.140779
0.111532
0.339857
0.274699
0.227966
0.306781
0.615773
0.730942
0.570943
0.0139988
0.0132787
0.0113394
0.0119709
0.0135475
0.0123588
0.00958808
0.00833517
0.0131175
0.0134397
0.013563
0.0123925
0.0112864
0.00997652
0.00296499
0.00403863
0.00357384
0.00659137
0.00627227
0.00521489
0.00299663
0.0144028
0.0117102
0.0027888
0.0023506
0.00259261
0.00167353
0.00260971
0.00190492
0.00216719
0.00247288
0.00235087
0.00253032
0.00376843
0.00517394
0.00620104
0.00801425
0.010511
0.0117563
0.0145848
0.0148781
0.0146594
0.0136399
0.0146699
0.0110513
0.0144908
0.0146559
0.0176781
0.0103918
0.00909626
0.00828267
0.00584716
0.00499453
0.00440528
0.00345892
0.00249127
0.00187982
0.000766412
0.000868952
0.000633074
0.000191339
0.000364913
7.30294e-05
3.0511e-05
2.3522e-05
1.05734e-05
5.15291e-06
6.98896e-06
6.20411e-06
1.04061e-07
1.27225e-07
2.2209e-08
2.17116e-08
2.63839e-08
2.96272e-08
3.77242e-08
3.96929e-06
4.8437e-06
3.22377e-07
3.97419e-07
3.50896e-07
3.40169e-07
2.94806e-07
3.17246e-07
1.52313e-07
0.000123089
1.49101e-05
0.000282003
0.00770227
0.0103372
0.0154051
0.00921213
0.0150873
0.00874613
0.0126238
0.000115956
0.0164713
0.018432
0.0125377
0.00620059
0.00922224
0.041505
0.0585566
0.0497284
0.0488937
0.0439051
0.0503873
0.0483739
0.0723973
0.0785939
0.0747671
0.0812685
0.105859
0.121352
0.121398
0.13614
0.140786
0.129117
0.149978
0.122924
0.295242
0.48104
0.563814
0.917455
1.10984
0.812192
1.98985
0.842825
0.0147533
0.0942054
0.0143223
0.0100382
0.00418877
0.00964988
0.00857304
0.0115847
0.0128665
0.0134994
0.0043847
0.00443735
0.00710511
0.00668047
0.00358343
0.00358873
0.00650502
0.00778571
0.00558372
0.0275297
0.0201715
0.0182992
0.0166364
0.00935422
0.00425762
0.00976927
0.00368576
0.00546518
0.00328177
0.00255139
0.0111665
0.0044064
0.00427809
0.00708116
0.0073852
0.0104362
0.011735
0.013039
0.0161987
0.0165388
0.0113864
0.00732045
0.014113
0.0101398
0.0171806
0.0257456
0.0332985
0.0294876
0.0142027
0.0336921
0.0100761
0.0316497
0.00588495
0.0020605
0.000902248
0.00106511
0.000877991
0.000869816
0.000719284
0.000254609
0.000591356
0.000651057
9.2928e-05
0.000614543
5.32741e-05
0.000396277
3.41153e-07
1.18116e-07
3.04236e-08
3.87247e-08
1.37118e-08
8.12849e-08
1.55776e-08
1.48883e-08
1.69309e-08
2.41548e-08
5.24602e-08
7.11245e-08
7.73814e-08
2.01334e-07
2.03094e-07
3.04238e-07
2.99466e-07
3.1699e-07
2.40153e-07
2.40568e-07
3.65795e-06
6.9621e-06
4.73366e-05
6.22771e-05
0.0127204
0.00686313
0.0106332
0.00401641
5.44346e-07
6.87726e-07
9.96844e-07
0.0165245
0.0119561
0.01876
0.021568
0.00196079
0.0186208
0.0485003
0.0459738
0.0284796
0.0313951
0.0353232
0.0400426
0.0822836
0.0866625
0.0675039
0.0862592
0.0975003
0.10969
0.107929
0.126777
0.13983
0.163513
0.196794
0.179548
0.31027
0.363771
0.766971
0.997244
1.18191
1.4626
1.78585
0.135575
0.191365
0.118646
0.184451
0.108759
0.117409
0.0156559
0.0146031
0.0185358
0.0061264
0.00524148
0.00789695
0.00793928
0.00825253
0.00557814
0.00434085
0.00788902
0.0473441
0.036029
0.0363264
0.0354629
0.0183637
0.0183699
0.0216526
0.0290394
0.0907738
0.0167186
0.00792038
0.00854305
0.00583137
0.0345031
0.0318604
0.0160625
0.0134143
0.0223769
0.0286367
0.0245489
0.0254245
0.0236277
0.0228983
0.0319261
0.0241958
0.0349587
0.028975
0.0322764
0.0394332
0.0285197
0.042951
0.0366879
0.0508342
0.0332971
0.0468594
0.00578783
0.00366087
0.0026464
0.000421751
0.000975903
0.000999382
0.000698171
0.000362657
0.000755262
0.000142347
0.000627094
0.000208701
2.33737e-07
2.23449e-07
2.84937e-08
1.0452e-08
4.10384e-09
2.20693e-08
5.87123e-08
7.63672e-08
5.08935e-08
1.4039e-08
1.49216e-07
1.58061e-08
3.62763e-07
4.79223e-08
2.3133e-07
2.18174e-07
2.85969e-07
2.37815e-07
2.07293e-07
1.93458e-07
1.12101e-05
1.17678e-05
1.3532e-05
1.25109e-05
1.47492e-05
1.53839e-05
1.38259e-05
1.24642e-05
1.06589e-05
7.77219e-06
6.53839e-06
1.13023e-05
7.78632e-07
1.13155e-06
0.00202805
0.00148764
0.00403041
0.0449521
0.0205082
0.0495005
0.0646038
0.00817856
0.00632319
0.00510763
0.00564047
0.0513893
0.087996
0.0607056
0.0701
0.056239
0.0846587
0.0678188
0.0760802
0.183693
0.162899
0.307836
0.35849
0.18438
0.324601
0.415573
5.3255
3.03094
5.20681
5.5606
0.196268
0.339877
0.269801
0.18328
0.0473913
0.0631482
0.0423729
0.0266666
0.00346033
0.0105586
0.0284793
0.130016
0.0109234
0.0107871
0.0211186
0.0522456
0.0549441
0.0552949
0.0421184
0.0403121
0.0181064
0.0796913
0.0444562
0.25372
0.208078
0.303868
0.304736
0.279245
1.14826
0.658387