# vtk DataFile Version 3.0
vtk output
ASCII
DATASET POLYDATA
POINTS 24578 float
-151.53 81.83 75.23
-146.76 79.98 77.9
-147.26 82.51 76.57
-151.22 79.35 76.36
-146.3 77.32 78.47
-150.76 76.75 77.01
-146.01 74.82 79.56
-150.4 74.19 77.98
-145.43 72.07 79.86
-149.95 71.56 78.66
-145.02 69.6 80.58
-149.55 69.11 79.46
-144.64 67.21 81.53
-149.14 66.64 80.2
-144.27 64.77 82.34
-148.68 64.12 80.8
-144.06 62.18 83.1
-148.26 61.63 81.51
-143.83 59.57 83.96
-148.2 59.14 82.73
-143.54 56.98 84.63
-148.02 56.58 83.6
-143.3 54.28 84.95
-147.52 53.77 83.62
-142.71 51.53 84.98
-147.03 50.98 83.68
-142.34 49.05 85.71
-146.66 48.52 84.06
-142.24 46.57 86.6
-146.26 46.05 84.34
-145.97 43.63 84.94
-141.82 44.09 87.11
-141.56 41.44 87.04
-145.67 41.21 85.5
-140.98 38.76 87.5
-145.29 38.66 85.7
-140.75 36.16 87.85
-144.89 36.1 85.85
-144.62 33.53 86.3
-140.46 33.57 88.45
-140.13 30.94 88.56
-144.22 30.94 86.41
-143.81 28.2 86.49
-139.84 28.2 88.9
-143.44 25.45 86.68
-139.6 25.51 89.44
-143.18 22.67 87.12
-139.22 22.78 89.44
-142.9 19.88 87.51
-138.79 20.04 89.71
-142.6 17.15 87.83
-138.39 17.32 89.75
-137.91 14.61 89.73
-142.25 14.42 88.03
-141.99 11.68 88.46
-137.6 11.89 89.94
-141.61 8.95 88.57
-137.22 9.16 90.05
-141.13 6.27 88.48
-136.86 6.45 90.3
-140.68 3.58 88.47
-136.37 3.76 90.16
-140.25 0.89 88.51
-135.88 1.07 90.03
-139.71 -1.79 88.26
-135.64 -1.76 90.02
-135.64 -4.55 89.75
-140 -4.44 88.09
-135.69 -7.09 89
-140.34 -7.12 88.03
-135.79 -9.62 88.23
-140.37 -9.69 87.25
-135.84 -12.19 87.54
-140.43 -12.27 86.54
-135.99 -14.75 87
-140.5 -14.79 85.8
-136.21 -17.35 86.64
-140.62 -17.33 85.19
-136.42 -19.93 86.21
-140.85 -19.94 84.82
-136.49 -22.42 85.34
-140.79 -22.34 83.7
-136.45 -24.91 84.43
-140.78 -24.79 82.73
-136.55 -27.44 83.74
-140.84 -27.3 81.99
-136.57 -29.97 82.98
-140.97 -29.86 81.42
-136.73 -32.54 82.43
-141.02 -32.36 80.63
-136.76 -35.12 81.64
-141.09 -34.97 79.94
-141.32 -37.69 79.69
-136.83 -37.72 80.96
-141.45 -40.33 79.13
-136.9 -40.34 80.32
-137.11 -43 79.41
-141.48 -42.91 78.35
-141.57 -45.38 77.61
-137.04 -45.54 78.64
-141.59 -47.8 76.7
-137.03 -47.91 77.56
-141.86 -50.43 76.49
-137.15 -50.39 76.9
-141.9 -52.84 75.63
-137.27 -52.84 76.11
-141.91 -55.11 74.4
-137.53 -55.19 75.26
-137.48 -57.49 74.21
-141.9 -57.35 73.07
-142.03 -59.74 72.14
-137.7 -59.92 73.43
-142.25 -62.22 71.44
-137.97 -62.48 72.92
-142.57 -64.67 70.67
-138.15 -65.14 72.4
-142.87 -67.1 69.86
-138.34 -67.41 71.12
-143.16 -69.56 69.09
-138.58 -69.8 70.17
-143.42 -71.97 68.22
-138.72 -72 68.84
-143.42 -74.03 66.78
-138.71 -74.17 67.59
-143.52 -76.26 65.69
-138.9 -76.5 66.65
-143.64 -78.59 64.8
-139.03 -78.91 65.88
-143.64 -80.66 63.43
-139.36 -81.09 64.3
-142.41 80.53 78.87
-142.88 83.09 77.59
-141.83 77.87 79.86
-141.49 75.33 80.8
-140.97 72.61 81.19
-140.47 70.13 81.77
-140.01 67.69 82.47
-139.94 65.21 83.59
-139.84 62.72 84.64
-139.44 60.04 85.13
-139.12 57.42 85.86
-138.88 54.8 86.42
-138.56 52.14 86.78
-138.19 49.56 87.25
-137.83 46.99 87.76
-137.58 44.31 88.01
-137.31 41.63 88.23
-137.03 38.95 89.21
-136.57 36.22 89.77
-136.22 33.57 90.06
-135.88 30.91 90.36
-135.74 28.24 91.1
-135.47 25.56 91.56
-134.94 22.88 91.41
-134.47 20.19 91.43
-134.08 17.49 91.57
-133.61 14.8 91.52
-133.09 12.1 91.2
-132.71 9.37 91.23
-132.3 6.67 91.32
-131.94 3.96 91.53
-131.76 1.11 91.67
-131.5 -1.71 91.62
-131.31 -4.41 90.89
-131.1 -7.09 90.13
-131.35 -9.7 89.79
-131.55 -12.29 89.33
-131.63 -14.81 88.62
-131.74 -17.34 87.96
-131.85 -19.85 87.19
-132.06 -22.42 86.66
-132.19 -25.02 86.17
-132.25 -27.57 85.48
-132.26 -30.09 84.65
-132.44 -32.72 84.26
-132.56 -35.36 83.72
-132.63 -37.97 83.04
-132.75 -40.58 81.94
-132.83 -43.16 80.72
-132.77 -45.71 79.94
-132.75 -48.3 79.25
-132.77 -50.64 78.12
-132.8 -52.99 77
-132.95 -55.32 76.2
-133.13 -57.69 75.53
-133.33 -60.11 74.69
-133.5 -62.48 73.72
-133.64 -65.09 73
-133.72 -67.59 72.04
-133.86 -69.81 70.74
-134.01 -72.03 69.43
-134.18 -74.44 68.63
-134.35 -76.86 67.84
-134.77 -79.33 66.76
-135.07 -81.54 65.2
-138.04 81.11 79.93
-138.51 83.66 78.64
-137.48 78.45 80.95
-136.81 75.7 81.58
-136.53 73.2 82.68
-136.2 70.85 83.66
-136.01 68.35 84.53
-135.78 65.76 85.17
-135.49 63.19 85.82
-135.19 60.56 86.38
-134.98 57.99 87.45
-134.76 55.37 88.25
-134.53 52.77 88.88
-134 50.11 89.1
-133.65 47.3 89.03
-133.3 44.56 89.42
-133.29 41.92 90.17
-132.89 39.2 91
-132.5 36.43 91.58
-132.05 33.68 92.21
-131.7 30.98 92.36
-131.44 28.31 92.66
-131.04 25.67 93.02
-130.62 23.02 93.01
-130.15 20.36 93.11
-129.82 17.66 93.35
-129.27 14.97 93.05
-128.74 12.27 92.73
-128.4 9.55 92.87
-127.96 6.85 92.86
-127.84 4 93.22
-127.59 1.17 93.17
-127.27 -1.64 92.97
-127.25 -4.36 92.57
-127.15 -7.08 92.07
-127.17 -9.83 91.83
-127.29 -12.38 91.16
-127.29 -14.86 90.23
-127.44 -17.42 89.6
-127.57 -19.97 88.96
-127.76 -22.53 88.35
-127.82 -25.1 87.72
-127.85 -27.64 86.95
-127.95 -30.27 86.46
-128.2 -32.95 86.24
-128.25 -35.54 85.49
-128.5 -38.26 84.8
-128.59 -40.83 83.55
-128.62 -43.36 82.3
-128.5 -45.86 81.36
-128.57 -48.51 80.64
-128.51 -50.96 79.6
-128.63 -53.39 78.68
-128.82 -55.89 78.24
-129.15 -58.39 77.85
-129.06 -60.46 76.29
-128.99 -62.4 74.44
-128.98 -64.79 73.19
-129.01 -67.15 71.96
-128.97 -69.58 70.84
-129.28 -72.05 69.98
-129.48 -74.55 69.36
-130.01 -77.21 68.65
-130.42 -79.71 67.63
-130.79 -82.03 66.21
-133.82 81.84 81.46
-134.36 84.47 80.38
-133.19 79.09 82.22
-132.49 76.28 82.7
-131.95 73.65 83.71
-131.93 71.29 85
-131.87 68.9 86.17
-131.5 66.27 86.57
-131.13 63.64 86.94
-130.87 61.02 87.58
-130.68 58.45 88.47
-130.46 55.86 89.34
-130.18 53.24 90.02
-129.88 50.44 90.31
-129.64 47.69 90.79
-129.42 44.94 91.36
-129.23 42.2 92.03
-128.71 39.37 92.41
-128.45 36.65 93.48
-128.03 33.86 94.03
-127.47 31.03 94.24
-127.19 28.41 94.71
-126.88 25.78 95.12
-126.32 23.16 94.88
-125.8 20.53 94.74
-125.36 17.84 94.64
-124.86 15.16 94.43
-124.49 12.44 94.52
-124.2 9.71 94.8
-123.95 6.88 94.78
-123.68 4.05 94.73
-123.4 1.23 94.62
-123.18 -1.6 94.69
-123.37 -4.41 94.84
-123.31 -7.12 94.32
-123.16 -9.79 93.63
-122.95 -12.42 92.76
-123.09 -14.99 92.12
-123.27 -17.57 91.56
-123.4 -20.13 90.9
-123.5 -22.66 90.14
-123.53 -25.22 89.42
-123.57 -27.78 88.7
-123.68 -30.42 88.22
-123.74 -33.02 87.62
-123.94 -35.69 86.77
-124.14 -38.36 85.91
-124.27 -40.96 84.88
-124.51 -43.67 84.17
-124.44 -46.18 83.04
-124.36 -48.68 81.9
-124.32 -51.14 80.87
-124.34 -53.66 80.01
-124.65 -56.22 79.72
-124.85 -58.64 79.12
-124.76 -60.62 77.46
-124.57 -62.46 75.52
-124.49 -64.69 73.94
-124.51 -67.1 72.74
-124.57 -69.65 71.8
-124.65 -72.26 70.99
-125.14 -74.86 70.13
-125.57 -77.36 69.04
-126.01 -79.84 67.96
-126.39 -82.16 66.58
-129.58 82.52 82.46
-130.23 85.32 82
-128.9 79.77 83.09
-128.4 77.11 83.84
-127.98 74.41 84.96
-127.56 71.77 85.9
-127.33 69.24 86.57
-127.15 66.76 87.43
-126.86 64.14 88.01
-126.52 61.49 88.81
-126.36 58.96 89.84
-126.14 56.38 90.8
-125.97 53.53 91.15
-125.51 50.64 91.5
-125.42 47.93 92.31
-125.22 45.19 93.14
-125.05 42.45 93.81
-124.64 39.66 94.38
-124.31 36.88 95.2
-123.77 34.05 95.42
-123.26 31.23 95.69
-122.78 28.52 96.11
-122.44 25.87 96.38
-121.98 23.27 96.26
-121.42 20.65 96.06
-121.04 17.96 96.08
-120.68 15.29 96.36
-120.38 12.57 96.56
-120.17 9.75 96.72
-119.91 6.93 96.66
-119.55 4.12 96.37
-119.27 1.3 96.28
-119.07 -1.54 96.32
-119.25 -4.36 96.51
-119.22 -7.1 96.08
-119.04 -9.77 95.31
-119 -12.5 94.8
-118.91 -15.21 94.19
-119.08 -17.79 93.59
-119.2 -20.38 92.98
-119.3 -22.91 92.18
-119.31 -25.47 91.43
-119.31 -28 90.63
-119.33 -30.55 89.87
-119.45 -33.15 88.84
-119.6 -35.8 87.91
-119.83 -38.5 87.17
-120.05 -41.2 86.43
-120.26 -43.87 85.57
-120.32 -46.42 84.63
-120.24 -48.94 83.59
-120.24 -51.46 82.7
-120.29 -53.99 81.83
-120.1 -56.26 80.6
-120.22 -58.48 79.45
-120.33 -60.66 78.2
-120.24 -62.81 76.84
-120.26 -65.2 75.6
-120.18 -67.48 74.2
-120.23 -70.02 73.25
-120.52 -72.67 72.16
-120.81 -75.19 70.96
-121.18 -77.58 69.65
-121.52 -79.9 68.24
-121.92 -82.27 66.97
-125.25 83.17 83.41
-125.88 85.88 82.84
-124.6 80.45 83.94
-124.22 77.72 84.75
-123.94 75.09 85.93
-123.46 72.43 86.81
-122.93 69.71 87.46
-122.73 67.14 88.15
-122.59 64.64 89.06
-122.25 62 89.9
-121.95 59.4 90.9
-121.96 56.7 91.92
-121.73 53.8 92.2
-121.47 50.99 93.04
-121.27 48.22 94.07
-121.07 45.45 94.8
-120.88 42.69 95.58
-120.53 39.9 96.26
-120.06 37.06 96.59
-119.52 34.23 96.77
-119.19 31.45 97.53
-118.64 28.71 97.7
-118.07 25.97 97.81
-117.65 23.36 97.86
-117.2 20.75 97.82
-116.76 18.09 97.81
-116.45 15.42 98.16
-116.25 12.62 98.27
-115.94 9.82 98.09
-115.72 7.01 98.16
-115.43 4.19 98.08
-115.24 1.34 98.13
-115.02 -1.5 98.11
-115.03 -4.27 97.86
-115.05 -7.04 97.62
-115.01 -9.78 97.12
-114.91 -12.5 96.46
-114.83 -15.21 95.87
-114.79 -17.94 95.36
-114.95 -20.55 94.79
-115.09 -23.14 94.17
-115.09 -25.69 93.41
-115.09 -28.25 92.66
-115.19 -30.82 91.55
-115.34 -33.43 90.58
-115.56 -36.16 89.86
-115.65 -38.76 88.81
-115.73 -41.32 87.6
-115.89 -43.96 86.62
-115.94 -46.5 85.75
-115.97 -49.02 84.82
-116.06 -51.62 84.1
-116.16 -54.22 83.41
-116 -56.46 81.98
-115.78 -58.59 80.34
-115.73 -60.7 78.9
-115.82 -63.01 77.89
-115.91 -65.56 77.02
-115.85 -67.86 75.66
-116.07 -70.39 74.35
-116.45 -73.24 73.66
-116.73 -75.78 72.45
-116.87 -78.01 70.66
-117.13 -80.1 68.85
-117.46 -82.37 67.36
-120.93 83.58 83.84
-121.35 86.18 83.25
-120.43 80.92 84.76
-120.24 78.29 85.68
-119.85 75.73 86.84
-119.39 73.08 87.68
-118.97 70.39 88.56
-118.52 67.71 89.38
-118.27 65.1 89.93
-117.89 62.43 90.71
-117.77 59.68 91.68
-117.62 56.89 92.64
-117.53 54.11 93.38
-117.25 51.28 94.27
-116.99 48.44 95.07
-116.61 45.56 95.63
-116.37 42.76 96.18
-116.01 39.98 96.85
-115.62 37.17 97.41
-115.23 34.39 98.02
-114.97 31.62 98.96
-114.53 28.91 99.33
-113.9 26.15 99.26
-113.4 23.47 99.53
-113.04 20.85 99.72
-112.61 18.2 99.71
-112.34 15.45 99.77
-112.11 12.66 99.75
-111.7 9.9 99.43
-111.54 7.08 99.65
-111.31 4.26 99.65
-111.1 1.42 99.6
-110.91 -1.42 99.76
-110.84 -4.17 99.3
-110.76 -6.92 98.71
-110.8 -9.71 98.47
-110.76 -12.46 97.96
-110.67 -15.19 97.39
-110.65 -17.93 96.92
-110.56 -20.62 96.27
-110.66 -23.19 95.59
[...]
CELL_DATA 49152
SCALARS Temperature float 1
LOOKUP_TABLE default
4.63335e-05
4.32949e-05
0.000177228
2.92915e-05
4.42214e-05
3.46971e-05
0.000214064
0.000205329
0.000201092
0.000206099
0.000189165
0.00018833
0.000176395
0.000142517
3.24682e-05
4.09393e-05
3.5217e-05
0.000119444
0.000282177
0.000294967
0.00180194
0.00303701
0.00221711
0.000986833
0.000887061
0.00325795
0.00314419
0.00564293
0.00584739
0.0054519
0.0079989
0.00375646
0.00245341
0.0382401
0.00502442
0.00871574
0.00590449
0.00784198
0.182616
0.128595
0.134143
0.203466
0.0898221
0.235729
0.255226
0.269237
0.233753
0.25186
0.232862
0.263568
0.0780145
0.0292297
0.0785659
0.277473
0.620418
0.652462
0.0937857
0.164961
0.466597
2.29807
0.369539
0.833729
0.650188
0.574475
0.647127
0.556965
194.031
59.8709
245.56
246.597
233.853
235.308
201.247
229.86
57.0379
38.0363
50.0325
52.2152
238.555
262.2
233.134
238.575
55.6308
180.27
43.6447
52.5047
49.5043
190.063
185.842
43.634
63.6123
209.563
170.301
207.789
242.761
238.144
235.023
243.801
261.603
284.811
96.9993
257.949
280.324
269.24
308.162
259.539
284.984
297.877
257.473
222.183
84.8123
94.967
73.9229
87.0527
176.042
284.555
218.035
258.634
248.32
311.713
322.554
304.492
290.825
266.941
263.233
239.769
305.693
308.956
3.42941e-05
3.69528e-05
0.000198781
0.000210217
3.66556e-05
4.9298e-05
4.44581e-05
4.60303e-05
2.81442e-05
2.66988e-05
1.9654e-05
2.83474e-05
2.87199e-05
0.000198285
0.000121869
0.000213812
0.000241974
0.000219725
0.000294904
0.000329732
0.000498901
0.000589042
0.000734756
0.00342132
0.00283905
0.00153712
0.00143929
0.00127196
0.000749093
0.00224978
0.000686066
0.00103716
0.000451235
0.00138159
0.00413882
0.00478198
0.00542016
0.00613188
0.00793171
0.00563525
0.00515461
0.0172184
0.0517837
0.0506281
0.313715
0.249418
0.151202
0.1332
0.0438128
0.171759
0.438131
0.364062
0.740862
0.66807
0.174094
0.967893
0.945886
0.96832
1.22679
0.277165
0.884308
0.245797
0.389267
0.392811
9.06402
8.31556
19.7734
19.6375
13.3121
51.2115
47.1322
152.113
161.385
53.9763
165.264
53.8245
225.365
161.366
33.7258
241.794
48.5657
226.5
39.3913
44.1975
33.7026
34.4149
49.3137
50.54
48.5361
51.2284
53.4986
57.9286
211.562
123.146
254.108
229.224
227.193
227.972
268.346
167.206
138.935
275.458
231.033
286.023
257.455
254.297
283.399
203.776
219.717
234.865
114.597
276.214
206.229
252.679
307.497
267.028
266.472
310.876
313.102
310.721
310.262
245.416
262.456
233.864
232.702
266.042
308.728
306.423
2.78458e-05
2.94153e-05
0.000184431
0.000186702
0.000251724
0.000240109
0.000211549
4.09942e-05
1.85271e-05
3.44688e-05
3.3319e-05
3.32731e-05
3.53884e-05
3.1434e-05
4.36161e-05
0.000162643
0.000259785
0.000251206
0.000158061
0.000176144
0.00073918
0.00232325
0.00273094
0.00369309
0.00371175
0.00318161
0.00255318
0.000754115
0.000563767
0.000559562
0.000615755
0.000470856
0.000563542
0.00370959
0.00370298
0.00395746
0.00529178
0.027303
0.0400809
0.0169037
0.0085375
0.0159953
0.0148077
0.027107
0.0578019
0.182335
0.0583792
0.0460744
0.0476319
0.0536503
0.912933
0.763296
0.209377
0.190171
0.153438
0.164991
0.19512
0.16024
0.193978
0.212519
0.20746
0.94144
1.57107
6.33104
9.36228
33.3106
32.688
39.6522
43.4602
48.3624
49.0449
48.4396
222.944
187.588
45.6574
157.626
37.6829
34.8408
40.6397
36.8308
34.2874
39.5897
23.2773
23.8281
33.5652
32.706
46.9971
54.6247
41.1758
42.6953
37.5815
98.0266
249.368
238.695
261.131
257.514
209.416
248.337
199.643
194.254
257.723
264.15
232.305
79.4707
81.4413
93.1133
94.1036
105.184
275.18
207.842
320.973
282.048
249.687
315.493
294.884
321.296
328.332
308.195
323.624
272.933
269.828
237.249
260.047
221.856
271.066
262.042
308.819
290.547
3.59057e-05
3.37448e-05
0.000175947
0.000124951
0.000262738
0.000257192
0.000189945
7.66394e-05
8.24357e-05
4.88258e-05
6.58143e-05
3.50728e-05
0.000249155
0.000206945
0.000260766
0.000265534
0.000275952
0.000268313
0.000236477
0.000247784
0.000275885
0.000264979
0.000287898
0.000287543
0.000564033
0.000645353
0.000381651
0.00134889
0.00143036
0.0012049
0.00107215
0.00124979
0.0026612
0.00106088
0.00101431
0.00399637
0.00465314
0.00392787
0.0274122
0.0141871
0.00402714
0.00469546
0.014165
0.137901
0.385528
0.104768
0.154598
0.0693072
0.12209
0.0645647
0.173169
0.212029
0.0562803
0.175311
0.15327
0.16123
0.183294
0.179057
0.200088
1.0993
1.06071
1.42055
1.84572
8.72559
1.62515
38.4883
42.4742
44.5599
46.0523
36.5053
36.3159
21.6612
21.5733
38.4855
42.496
46.5633
42.9792
43.7285
138.77
40.1593
166.416
128.763
30.2583
29.21
39.6279
40.1316
49.335
178.696
220.802
217.716
224.346
204.359
260.118
272.049
186.94
248.44
242.013
229.835
250.927
207.521
261.598
262.779
244.681
52.4402
77.6271
85.1974
81.5496
180.365
319.535
315.356
338.22
334.677
315.612
302.295
301.113
296.462
291.124
263.88
252.619
245.485
218.645
248.016
225.871
290.161
285.41
292.126
315.602
312.699
0.000231454
0.000149878
0.000262647
0.000256187
0.000259329
0.000274887
7.0314e-05
9.98961e-05
0.000132901
7.88684e-05
0.000285867
0.00027217
0.000320099
0.000321954
0.000316443
0.000311312
0.000281066
0.000273522
0.000217375
0.000192531
0.000186213
0.00015881
0.000302569
0.000297359
0.000352698
0.00035403
0.00031865
0.000284093
0.000926615
0.00144918
0.00129663
0.00160498
0.00148679
0.00292995
0.00385774
0.00298607
0.00234035
0.000151535
0.00017911
0.00014453
0.000214967
0.000189589
0.000880898
0.0118356
0.135974
0.169211
0.124292
0.146465
0.0370693
0.0721883
0.0947747
0.104336
0.133685
0.285996
0.270449
0.269198
0.346147
0.557853
1.48189
0.973008
1.30984
1.43171
5.74756
4.66825
1.54063
1.74202
14.9684
25.1337
30.166
25.6991
28.1407
41.1988
40.8402
41.2145
41.8897
43.1465
41.4336
43.7413
126.716
95.2895
127.861
96.9357
168.509
133.774
161.832
42.8458
234.88
189.231
240.374
232.89
213.005
225.837
202.132
234.817
198.293
172.485
238.226
255.066
245.776
252.664
215.19
231.914
66.4452
63.5856
85.0967
301.015
225.011
309.783
316.562
331.678
313.501
333.426
278.093
295.021
282.475
269.969
237.278
239.089
214.88
249.567
214.79
280.43
270.407
299.42
280.973
317.682
316.094
305.642
0.000273434
0.000281565
0.000281946
0.000278761
0.000257644
0.000263299
0.000149805
0.000173218
0.000248555
0.000243931
0.000303354
0.000298923
0.000308495
0.000303588
0.000310477
0.00031059
0.00029646
0.000293088
0.000277191
0.000277909
0.000294626
0.000282879
0.000354688
0.000354249
0.000343035
0.000254638
0.000183449
0.000156498
0.00137721
0.00121294
0.00124131
0.00162427
0.00200668
0.00312117
0.00339438
0.000457742
0.00077924
0.000563394
0.000189043
0.000145828
0.00124851
0.00144609
0.00163103
0.0172732
0.0223759
0.0849081
0.0745407
0.111404
0.0912666
0.095858
0.0395915
0.0546256
0.0808897
0.0702784
0.0254305
0.0244953
0.0154612
0.0114376
0.658984
1.98722
1.68042
9.85092
11.6521
12.0041
0.571488
1.92469
2.52686
0
0.196314
190.763
122.453
32.3067
21.7005
23.4832
25.873
27.6343
27.2664
30.2813
29.389
150.904
152.372
146.371
148.988
165.95
221.084
184.239
213.292
220.317
53.005
165.747
206.484
132.303
253.216
210.886
249.32
239.845
250.688
254.909
255.848
264.383
246.345
195.969
229.614
158.439
292.42
284.473
313.224
292.315
314.809
306.401
314.903
272.684
288.024
228.284
287.744
290.128
238.003
277.369
254.003
121.627
244.024
244.686
300.042
283.138
319.61
307.766
298.041
319.703
0.000288179
0.000294686
0.000264162
0.000293409
0.000237356
0.000254116
0.000146591
0.000139986
0.000270593
0.000270147
0.00028061
0.000295431
0.000276789
0.000277496
0.000314967
0.000303848
0.000346169
0.000344259
0.000348221
0.000346758
0.000370662
0.000371951
0.000406784
0.000363134
0.000350268
0.00033681
0.000334319
0.0003919
0.000392681
0.000408594
0.000414479
0.000458195
0.000529003
0.000492385
0.000583384
0.00067175
0.000724731
0.000327981
0.000328767
0.000327382
0.000498167
0.00229048
0.0122511
0.012249
0.00903649
0.0135809
0.236484
0.197794
0.283914
0.106206
0.0753315
0.0270801
0.0290191
0.0124113
0.02107
0.0197406
0.00446195
0.00553126
0.102237
0.038498
0.116303
0.02744
0.038777
0.0587008
0.0298747
0.0170904
0.514268
4.88616
5.64735
7.06953
4.88417
3.59879
3.51459
3.62815
7.14334
14.2199
173.871
119.889
187.83
171.996
221.339
220.216
196.557
210.56
221.507
241.464
215.644
216.885
48.4081
87.0091
255.229
242.68
281.53
270.778
248.105
245.258
241.354
240.533
255.425
251.761
217.137
234.847
216.754
245.453
288.055
301.531
308.099
313.15
282.836
294.135
263.882
254.003
225.866
284.364
297.992
298.014
296.35
290.154
218.402
243.453
287.282
234.178
325.322
321.552
328.69
327.434
308.42
327.661
0.000259803
0.000280512
0.000256598
0.000257297
0.000256711
0.000259347
0.000244931
0.000236924
0.000290051
0.000302468
0.000265771
0.000291437
0.000288381
0.000301472
0.000358825
0.00035528
0.000330637
0.000332627
0.000349271
0.000351118
0.000386312
0.000387163
0.000419619
0.000410197
0.000426953
0.000415819
0.000442141
0.000447303
0.000461034
0.0004584
0.000467581
0.000441693
0.000437138
0.000431288
0.000387312
0.00038521
0.000357479
0.000353645
0.000338773
0.000777777
0.00138098
0.00157024
0.00198545
0.00162456
0.00159826
0.00155202
0.00137958
0.00153431
0.00115994
0.000560241
0.0493217
0.0284473
0.113297
0.017658
0.0218741
0.00327384
0.00366725
0.013621
0.0322093
0.0229814
0.0197974
0.0237826
0.0664755
0.179891
0.147778
1.36621
0.443099
0.565999
0.110863
0.148288
1.52062
2.51912
0.53057
4.34735
19.1084
28.8242
31.9871
33.9475
239.472
179.72
224.527
216.67
220.248
203.978
228.578
231.212
244.233
242.472
224.266
206.503
273.302
276.974
272.535
284.35
234.669
237.542
234.561
230.722
251.623
248.315
239.607
226.591
230.537
265.277
264.505
278.263
282.525
298.989
258.567
269.445
283.703
268.986
288.768
278.991
289.855
291.209
311.728
301.913
234.357
318.07
279.592
333.95
354.789
321.829
344.679
293.756
320.725
271.703
7.71158e-05
0.00021192
0.000207878
0.000213652
0.000261866
0.00022818
0.000188556
0.000192208
0.000301614
0.000278726
0.000344017
0.000307916
0.000341733
0.000355728
0.000309252
0.000373839
0.000300499
0.000311055
0.000382841
0.000379769
0.000416466
0.00041613
0.000448981
0.000443922
0.000467429
0.000455261
0.00048491
0.000452059
0.000470615
0.000375205
0.000397993
0.000348724
0.00036518
0.000380316
0.000334629
0.000335772
0.000346443
0.000345615
0.000258937
0.000256012
0.000280155
0.00031311
0.00219343
0.0103957
0.000610571
0.00118013
0.00130303
0.00157345
0.00146268
0.00151901
0.000977911
0.00110296
0.0883301
0.0191079
0.0237829
0.0226853
0.0127899
0.015829
0.0433822
0.202486
0.0424326
0.272411
0.100144
0.491339
0.136055
0.136956
0.448627
0.415722
0.363315
0.134139
0.548913
0.612592
0.384463
0.675454
0.710799
8.39679
9.64097
138.054
189.141
234.318
205.402
187.595
254.627
219.312
226.855
221.293
230.169
236.02
229.725
219.745
262.246
263.499
242.728
256.54
256.341
240.955
241.845
242.328
247.429
252.763
220.784
231.81
255.294
248.155
289.781
266.34
290.954
248.522
270.881
276.632
310.435
304.407
297.183
300.178
297.877
295.929
315.201
316.315
292.041
287.348
293.369
300.939
295.272
299.648
286.821
282.336
283.347
292.246
0.000199377
5.95268e-05
0.00024098
0.000261114
0.000261148
0.000286933
0.000271362
0.000248942
0.000251586
0.000307507
0.000292197
0.000326376
8.90465e-05
0.000304065
9.21284e-05
0.00019202
0.00029732
4.93364e-05
0.000404509
0.000130586
0.000121524
0.000135038
0.00016057
0.000352547
0.000257484
0.000496889
0.000458898
0.000476094
0.000453817
0.000476633
0.000455788
0.000445193
0.000435008
0.000437011
0.000389717
0.000393484
0.00037551
0.000367366
0.000305225
0.000325652
0.000313341
0.000347625
0.00874347
0.00803293
0.00869006
0.00615182
0.00179863
0.00170251
0.00160787
0.00165925
0.00133548
0.00202414
0.0154218
0.0148014
0.0148914
0.00416681
0.00662111
0.00681848
0.0118537
0.0349155
0.605074
0.914455
1.19732
1.15107
0.288984
0.269145
0.548505
0.467433
0.514883
0.108337
0.188388
0.547787
0.423986
0.498193
3.8963
10.8482
239.214
160.82
190.893
234.137
170.03
235.518
251.195
261.218
226.528
213.313
211.436
212.031
230.449
223.197
225.801
242.494
224.943
220.869
233.065
242.813
212.53
212.4
220.959
219.137
241.365
213.033
252.601
254.404
274.594
281.838
229.069
272.451
284.425
277.603
287.564
299.284
286.773
282.81
294.201
290.492
295.94
301.666
290.668
282.088
293.461
193.817
266.149
172.995
297.407
269.322
317.276
301.746
0.000227885
0.000217373
4.27175e-05
0.000244585
4.45691e-05
0.000263495
5.44259e-05
0.000266652
5.83825e-05
5.87435e-05
5.49649e-05
7.44315e-05
7.1481e-05
9.16269e-05
9.37777e-05
8.45286e-05
8.41315e-05
9.34262e-05
0.000101216
0.000107972
0.00011194
9.33242e-05
0.000431196
0.000423212
0.000506191
0.000465788
0.00047789
0.000507819
0.000483741
0.000518569
0.000514824
0.000465321
0.0004713
0.000486892
0.000472669
0.000469967
0.000398879
0.000390308
0.000369407
0.000353046
0.000389537
0.000338708
0.000229669
0.000225437
0.000181698
0.00234455
0.00223635
0.00873145
0.00917326
0.00882153
0.00955167
0.0103239
0.00929775
0.0037334
0.00308917
0.00280607
0.00225045
0.00115603
0.00583696
0.00130738
0.0109906
0.00489553
0.326396
0.0440728
0.0469326
0.0520568
0.0801934
0.938059
0.580245
0.586831
0.565707
0.3526
0.27696
0.206114
12.0867
111.156
185.235
207.302
227.288
97.5393
169.461
165.942
183.371
246.364
222.092
226.988
208.195
203.512
226.228
225.426
215.408
214.814
222.64
225.979
220.219
226.437
244.849
228.053
243.327
238.247
259.625
257.205
267.992
259.936
270.552
277.014
267.453
269.038
281.418
281.113
277.826
278.355
289.328
290.175
291.243
292.502
290.2
290.205
286.693
289.015
221.382
294.684
264.667
247.574
306.774
316.52
333.457
325.147
4.73887e-05
5.50501e-05
5.4539e-05
5.6228e-05
5.56085e-05
5.17787e-05
5.3533e-05
5.77352e-05
5.28952e-05
4.78269e-05
3.51947e-05
3.5324e-05
5.21613e-05
7.36561e-05
5.86699e-05
7.30719e-05
7.38514e-05
9.21115e-05
9.60493e-05
8.04621e-05
0.000238136
0.000552802
0.000587228
0.000610439
0.000694985
0.000518682
0.000520916
0.000251376
0.000202795
0.000364087
0.000258723
0.000511639
0.000456908
0.000411833
0.000452688
0.00037518
0.0003908
0.000350444
0.000346065
0.00030261
0.00031044
0.00022236
0.000213131
0.000210691
0.000156039
0.000213384
0.000287167
0.00020483
0.000107305
0.00156889
0.00131682
0.00248027
0.00239475
0.00153898
0.0015432
0.00116732
0.0010898
0.00123622
0.00112604
0.00233071
0.0035662
0.00214894
0.00612369
0.0299641
0.0346561
0.0396345
0.198657
0.0612008
0.0730853
0.490919
136.589
20.6684
189.018
15.5115
27.1912
18.789
203.368
209.936
238.198
245.167
178.782
142.718
175.835
167.576
213.768
237.012
201.945
219.388
224.292
229.127
234.611
225.951
243.716
237.449
250.733
243.603
262.681
263.102
258.901
255.806
258.644
264.208
275.923
273.238
272.626
271.575
274.308
273.895
286.09
286.983
281.607
282.502
290.331
292.022
292.556
293.613
298.78
296.354
302.692
298.378
305.791
299.212
261.175
299.508
311.533
317.254
337.047
342.758
4.12114e-05
4.3852e-05
3.96295e-05
4.77018e-05
5.32514e-05
6.05123e-05
6.34616e-05
5.94294e-05
5.98477e-05
6.13904e-05
5.44251e-05
5.54538e-05
6.75086e-05
4.66933e-05
3.59235e-05
3.47116e-05
4.92861e-05
6.14223e-05
5.18994e-05
0.000360099
0.000493772
0.000103454
0.00050872
0.000186294
0.000149495
0.000214441
0.00221197
0.00296045
0.00242587
0.00233698
0.00130817
0.000469848
0.00040658
0.000273206
0.000307757
0.000283922
0.000266082
0.000202538
0.000220899
0.000184248
0.00018614
8.75471e-05
0.000184913
6.89287e-05
0.000197848
8.60818e-05
0.000185721
9.88518e-05
0.000125636
0.000109934
0.000139084
0.000190774
0.000322971
0.000301914
0.000478121
0.000450605
0.000431329
0.000474588
0.000574721
0.00145871
0.00125301
0.0013643
0.0197771
0.0249061
0.0253865
0.0264307
1.14864
0.990122
1.05232
0.96531
3.10064
170.958
23.5068
199.613
27.5578
34.9835
242.082
226.923
213.679
241.527
152.093
181.756
156.588
156.561
198.272
199.452
199.074
205.132
235.893
236.642
253.734
250.841
258.332
255.551
266.898
261.879
251.984
261.721
250.903
255.44
273.442
261.693
276.746
279.352
278.353
276.647
277.13
277.298
278.671
283.589
286.259
283.212
290.857
291.781
296.834
296.245
301.351
302.316
306.307
305.134
310.451
307.763
298.015
290.779
315.55
310.333
323.283
331.47
5.3965e-05
8.43729e-05
4.80578e-05
8.08942e-05
5.17668e-05
5.36316e-05
4.86088e-05
5.02755e-05
5.76973e-05
6.51393e-05
6.64819e-05
6.98248e-05
7.1802e-05
6.6514e-05
6.04438e-05
5.78673e-05
6.74091e-05
9.56192e-05
7.56832e-05
7.00978e-05
7.26067e-05
7.4972e-05
9.89012e-05
8.87514e-05
0.000119629
0.000274417
0.000648791
0.000381735
0.000623651
0.000509024
0.00079419
0.000172761
0.000171291
0.000185716
0.000229822
0.00018351
0.000184678
0.000153297
0.000170049
0.000116216
0.000107596
9.78827e-05
9.49329e-05
8.25393e-05
9.00661e-05
0.000104415
8.15996e-05
0.000111514
9.72879e-05
0.000196928
0.000389344
0.000415461
0.000579964
0.000807447
0.00057782
0.00179937
0.000486232
0.000639873
0.00188311
0.00239061
0.0135969
0.0147316
0.0175161
0.00844661
0.011978
0.0098214
0.930178
1.27443
0.165018
0.987936
1.68833
6.85034
13.5807
30.923
36.459
34.335
232.969
214.051
167.961
145.303
180.765
135.51
183.017
174.859
226.864
216.686
210.388
214.964
265.6
256.317
271.382
271.907
259.851
267.957
249.695
263.946
255.341
248.932
266.333
259.132
271.348
277.607
267.798
270.876
290.772
283.174
279.69
280.096
270.423
276.243
296.028
292.561
296.936
295.438
304.315
303.152
304.762
305.747
304.262
307.546
305.267
307.542
300.238
296.012
310.514
308.841
309.687
310.35
0.000106974
0.000282385
0.000218528
0.000140408
5.53604e-05
8.24647e-05
4.8465e-05
2.29188e-05
1.35434e-05
4.55918e-05
4.90294e-05
6.91519e-05
6.57431e-05
6.55673e-05
7.05081e-05
0.00010306
0.00010663
0.000106332
8.01167e-05
8.00724e-05
6.78727e-05
0.000149606
8.89445e-05
0.000489803
0.000389907
0.000585517
0.000594369
0.00054322
0.00261049
0.0015075
0.000342964
0.000226197
0.000119384
0.0001087
0.000155205
0.000140412
8.70979e-05
0.0001245
0.000113454
0.000111984
0.000115805
0.000133986
0.000100554
0.000148578
0.000111738
0.00015336
0.000140536
0.000151247
0.000174537
0.000179483
0.000194444
0.000200271
0.000160196
0
0.00175701
0.000431965
0.000489309
0.000265299
0.000785566
0.000450135
0.000394218
0.000356421
0.000422365
0
0.000443091
0.0803148
0.0113294
0.139142
0.124891
0.132123
5.46983
9.19534
10.9142
14.5901
194.94
150.184
240.729
247.468
167.251
173.677
188.078
180.692
202.168
180.095
223.069
222.548
214.654
204.001
254.004
260.028
264.914
261.851
260.901
254.097
232.032
243.085
261.476
260.608
272.49
269.778
242.693
257.977
282.83
272.153
302.569
299.56
280.934
281.36
285.699
279.373
293.881
300.638
302.197
300.21
304.102
305.012
304.147
304.208
301.981
303.267
297.583
302.542
311.065
306.582
306.799
309.083
305.702
305.855
0.000952397
0.00301933
0.00518471
0.00358948
0.00098563
0.000156956
9.85191e-05
0.000132122
0.000235219
0.000735987
0.000504192
0.000675223
0
0
0.00046094
0.000147656
0.000173394
0.000130461
8.96782e-05
0.00015114
0.000297327
0.000397263
0.000457491
0.000535215
0.000429166
0.00068598
0.000695213
0.000755922
0.00059651
0.000678535
0.000170998
0.000155645
0.000134519
7.6576e-05
9.121e-05
0.000134994
9.86226e-05
7.36883e-05
0.000117143
0.000145539
0.00014065
0.000159988
0.000148048
0.000170238
0.000150835
0.000170894
0.000158801
0.000162035
0.000184863
0.000149469
0.000169041
0.000141815
2.30686e-05
1.67421e-05
0.000941203
8.34841e-05
8.24008e-05
1.29747e-05
6.42503e-05
5.92038e-06
0.000722796
0.000732507
0.00107644
0.00147498
0.0127021
0.000333458
0.00317275
0.00591273
2.47169e-06
0.0100347
0.0158118
0.0167271
0.0220823
0.154331
0.00178636
185.857
214.952
219.586
240.782
194.217
210.793
210.89
223.557
220.664
214.306
222.654
55.7694
175.783
202.275
217.794
272.88
256.564
249.867
249.433
261.1
234.448
263.819
266.433
271.664
274.288
274.033
259.057
293.058
297.783
290.675
299.55
275.167
274.063
290.059
284.99
295.769
291.872
298.193
302.361
301.64
301.918
307.771
305.657
308.343
306.241
305.659
304.67
317.042
319.408
315.061
312.788
313.895
314.407
0.0012047
0.00249595
0.00629692
0.00357548
0.00283402
0.00153535
0.00186961
0.00201626
0.00214601
0.0056514
0.00566469
0.00486115
0.00553197
0.00361955
0.00209063
0.00123022
0.000265642
0.000195255
0.000172012
0.000160703
0.000181643
0.000247697
0.000330304
0.000404995
0.000430127
0.000476692
0.000179906