# vtk DataFile Version 3.0
vtk output
ASCII
DATASET POLYDATA
POINTS 24578 float
-151.53 81.83 75.23
-146.76 79.98 77.9
-147.26 82.51 76.57
-151.22 79.35 76.36
-146.3 77.32 78.47
-150.76 76.75 77.01
-146.01 74.82 79.56
-150.4 74.19 77.98
-145.43 72.07 79.86
-149.95 71.56 78.66
-145.02 69.6 80.58
-149.55 69.11 79.46
-144.64 67.21 81.53
-149.14 66.64 80.2
-144.27 64.77 82.34
-148.68 64.12 80.8
-144.06 62.18 83.1
-148.26 61.63 81.51
-143.83 59.57 83.96
-148.2 59.14 82.73
-143.54 56.98 84.63
-148.02 56.58 83.6
-143.3 54.28 84.95
-147.52 53.77 83.62
-142.71 51.53 84.98
-147.03 50.98 83.68
-142.34 49.05 85.71
-146.66 48.52 84.06
-142.24 46.57 86.6
-146.26 46.05 84.34
-145.97 43.63 84.94
-141.82 44.09 87.11
-141.56 41.44 87.04
-145.67 41.21 85.5
-140.98 38.76 87.5
-145.29 38.66 85.7
-140.75 36.16 87.85
-144.89 36.1 85.85
-144.62 33.53 86.3
-140.46 33.57 88.45
-140.13 30.94 88.56
-144.22 30.94 86.41
-143.81 28.2 86.49
-139.84 28.2 88.9
-143.44 25.45 86.68
-139.6 25.51 89.44
-143.18 22.67 87.12
-139.22 22.78 89.44
-142.9 19.88 87.51
-138.79 20.04 89.71
-142.6 17.15 87.83
-138.39 17.32 89.75
-137.91 14.61 89.73
-142.25 14.42 88.03
-141.99 11.68 88.46
-137.6 11.89 89.94
-141.61 8.95 88.57
-137.22 9.16 90.05
-141.13 6.27 88.48
-136.86 6.45 90.3
-140.68 3.58 88.47
-136.37 3.76 90.16
-140.25 0.89 88.51
-135.88 1.07 90.03
-139.71 -1.79 88.26
-135.64 -1.76 90.02
-135.64 -4.55 89.75
-140 -4.44 88.09
-135.69 -7.09 89
-140.34 -7.12 88.03
-135.79 -9.62 88.23
-140.37 -9.69 87.25
-135.84 -12.19 87.54
-140.43 -12.27 86.54
-135.99 -14.75 87
-140.5 -14.79 85.8
-136.21 -17.35 86.64
-140.62 -17.33 85.19
-136.42 -19.93 86.21
-140.85 -19.94 84.82
-136.49 -22.42 85.34
-140.79 -22.34 83.7
-136.45 -24.91 84.43
-140.78 -24.79 82.73
-136.55 -27.44 83.74
-140.84 -27.3 81.99
-136.57 -29.97 82.98
-140.97 -29.86 81.42
-136.73 -32.54 82.43
-141.02 -32.36 80.63
-136.76 -35.12 81.64
-141.09 -34.97 79.94
-141.32 -37.69 79.69
-136.83 -37.72 80.96
-141.45 -40.33 79.13
-136.9 -40.34 80.32
-137.11 -43 79.41
-141.48 -42.91 78.35
-141.57 -45.38 77.61
-137.04 -45.54 78.64
-141.59 -47.8 76.7
-137.03 -47.91 77.56
-141.86 -50.43 76.49
-137.15 -50.39 76.9
-141.9 -52.84 75.63
-137.27 -52.84 76.11
-141.91 -55.11 74.4
-137.53 -55.19 75.26
-137.48 -57.49 74.21
-141.9 -57.35 73.07
-142.03 -59.74 72.14
-137.7 -59.92 73.43
-142.25 -62.22 71.44
-137.97 -62.48 72.92
-142.57 -64.67 70.67
-138.15 -65.14 72.4
-142.87 -67.1 69.86
-138.34 -67.41 71.12
-143.16 -69.56 69.09
-138.58 -69.8 70.17
-143.42 -71.97 68.22
-138.72 -72 68.84
-143.42 -74.03 66.78
-138.71 -74.17 67.59
-143.52 -76.26 65.69
-138.9 -76.5 66.65
-143.64 -78.59 64.8
-139.03 -78.91 65.88
-143.64 -80.66 63.43
-139.36 -81.09 64.3
-142.41 80.53 78.87
-142.88 83.09 77.59
-141.83 77.87 79.86
-141.49 75.33 80.8
-140.97 72.61 81.19
-140.47 70.13 81.77
-140.01 67.69 82.47
-139.94 65.21 83.59
-139.84 62.72 84.64
-139.44 60.04 85.13
-139.12 57.42 85.86
-138.88 54.8 86.42
-138.56 52.14 86.78
-138.19 49.56 87.25
-137.83 46.99 87.76
-137.58 44.31 88.01
-137.31 41.63 88.23
-137.03 38.95 89.21
-136.57 36.22 89.77
-136.22 33.57 90.06
-135.88 30.91 90.36
-135.74 28.24 91.1
-135.47 25.56 91.56
-134.94 22.88 91.41
-134.47 20.19 91.43
-134.08 17.49 91.57
-133.61 14.8 91.52
-133.09 12.1 91.2
-132.71 9.37 91.23
-132.3 6.67 91.32
-131.94 3.96 91.53
-131.76 1.11 91.67
-131.5 -1.71 91.62
-131.31 -4.41 90.89
-131.1 -7.09 90.13
-131.35 -9.7 89.79
-131.55 -12.29 89.33
-131.63 -14.81 88.62
-131.74 -17.34 87.96
-131.85 -19.85 87.19
-132.06 -22.42 86.66
-132.19 -25.02 86.17
-132.25 -27.57 85.48
-132.26 -30.09 84.65
-132.44 -32.72 84.26
-132.56 -35.36 83.72
-132.63 -37.97 83.04
-132.75 -40.58 81.94
-132.83 -43.16 80.72
-132.77 -45.71 79.94
-132.75 -48.3 79.25
-132.77 -50.64 78.12
-132.8 -52.99 77
-132.95 -55.32 76.2
-133.13 -57.69 75.53
-133.33 -60.11 74.69
-133.5 -62.48 73.72
-133.64 -65.09 73
-133.72 -67.59 72.04
-133.86 -69.81 70.74
-134.01 -72.03 69.43
-134.18 -74.44 68.63
-134.35 -76.86 67.84
-134.77 -79.33 66.76
-135.07 -81.54 65.2
-138.04 81.11 79.93
-138.51 83.66 78.64
-137.48 78.45 80.95
-136.81 75.7 81.58
-136.53 73.2 82.68
-136.2 70.85 83.66
-136.01 68.35 84.53
-135.78 65.76 85.17
-135.49 63.19 85.82
-135.19 60.56 86.38
-134.98 57.99 87.45
-134.76 55.37 88.25
-134.53 52.77 88.88
-134 50.11 89.1
-133.65 47.3 89.03
-133.3 44.56 89.42
-133.29 41.92 90.17
-132.89 39.2 91
-132.5 36.43 91.58
-132.05 33.68 92.21
-131.7 30.98 92.36
-131.44 28.31 92.66
-131.04 25.67 93.02
-130.62 23.02 93.01
-130.15 20.36 93.11
-129.82 17.66 93.35
-129.27 14.97 93.05
-128.74 12.27 92.73
-128.4 9.55 92.87
-127.96 6.85 92.86
-127.84 4 93.22
-127.59 1.17 93.17
-127.27 -1.64 92.97
-127.25 -4.36 92.57
-127.15 -7.08 92.07
-127.17 -9.83 91.83
-127.29 -12.38 91.16
-127.29 -14.86 90.23
-127.44 -17.42 89.6
-127.57 -19.97 88.96
-127.76 -22.53 88.35
-127.82 -25.1 87.72
-127.85 -27.64 86.95
-127.95 -30.27 86.46
-128.2 -32.95 86.24
-128.25 -35.54 85.49
-128.5 -38.26 84.8
-128.59 -40.83 83.55
-128.62 -43.36 82.3
-128.5 -45.86 81.36
-128.57 -48.51 80.64
-128.51 -50.96 79.6
-128.63 -53.39 78.68
-128.82 -55.89 78.24
-129.15 -58.39 77.85
-129.06 -60.46 76.29
-128.99 -62.4 74.44
-128.98 -64.79 73.19
-129.01 -67.15 71.96
-128.97 -69.58 70.84
-129.28 -72.05 69.98
-129.48 -74.55 69.36
-130.01 -77.21 68.65
-130.42 -79.71 67.63
-130.79 -82.03 66.21
-133.82 81.84 81.46
-134.36 84.47 80.38
-133.19 79.09 82.22
-132.49 76.28 82.7
-131.95 73.65 83.71
-131.93 71.29 85
-131.87 68.9 86.17
-131.5 66.27 86.57
-131.13 63.64 86.94
-130.87 61.02 87.58
-130.68 58.45 88.47
-130.46 55.86 89.34
-130.18 53.24 90.02
-129.88 50.44 90.31
-129.64 47.69 90.79
-129.42 44.94 91.36
-129.23 42.2 92.03
-128.71 39.37 92.41
-128.45 36.65 93.48
-128.03 33.86 94.03
-127.47 31.03 94.24
-127.19 28.41 94.71
-126.88 25.78 95.12
-126.32 23.16 94.88
-125.8 20.53 94.74
-125.36 17.84 94.64
-124.86 15.16 94.43
-124.49 12.44 94.52
-124.2 9.71 94.8
-123.95 6.88 94.78
-123.68 4.05 94.73
-123.4 1.23 94.62
-123.18 -1.6 94.69
-123.37 -4.41 94.84
-123.31 -7.12 94.32
-123.16 -9.79 93.63
-122.95 -12.42 92.76
-123.09 -14.99 92.12
-123.27 -17.57 91.56
-123.4 -20.13 90.9
-123.5 -22.66 90.14
-123.53 -25.22 89.42
-123.57 -27.78 88.7
-123.68 -30.42 88.22
-123.74 -33.02 87.62
-123.94 -35.69 86.77
-124.14 -38.36 85.91
-124.27 -40.96 84.88
-124.51 -43.67 84.17
-124.44 -46.18 83.04
-124.36 -48.68 81.9
-124.32 -51.14 80.87
-124.34 -53.66 80.01
-124.65 -56.22 79.72
-124.85 -58.64 79.12
-124.76 -60.62 77.46
-124.57 -62.46 75.52
-124.49 -64.69 73.94
-124.51 -67.1 72.74
-124.57 -69.65 71.8
-124.65 -72.26 70.99
-125.14 -74.86 70.13
-125.57 -77.36 69.04
-126.01 -79.84 67.96
-126.39 -82.16 66.58
-129.58 82.52 82.46
-130.23 85.32 82
-128.9 79.77 83.09
-128.4 77.11 83.84
-127.98 74.41 84.96
-127.56 71.77 85.9
-127.33 69.24 86.57
-127.15 66.76 87.43
-126.86 64.14 88.01
-126.52 61.49 88.81
-126.36 58.96 89.84
-126.14 56.38 90.8
-125.97 53.53 91.15
-125.51 50.64 91.5
-125.42 47.93 92.31
-125.22 45.19 93.14
-125.05 42.45 93.81
-124.64 39.66 94.38
-124.31 36.88 95.2
-123.77 34.05 95.42
-123.26 31.23 95.69
-122.78 28.52 96.11
-122.44 25.87 96.38
-121.98 23.27 96.26
-121.42 20.65 96.06
-121.04 17.96 96.08
-120.68 15.29 96.36
-120.38 12.57 96.56
-120.17 9.75 96.72
-119.91 6.93 96.66
-119.55 4.12 96.37
-119.27 1.3 96.28
-119.07 -1.54 96.32
-119.25 -4.36 96.51
-119.22 -7.1 96.08
-119.04 -9.77 95.31
-119 -12.5 94.8
-118.91 -15.21 94.19
-119.08 -17.79 93.59
-119.2 -20.38 92.98
-119.3 -22.91 92.18
-119.31 -25.47 91.43
-119.31 -28 90.63
-119.33 -30.55 89.87
-119.45 -33.15 88.84
-119.6 -35.8 87.91
-119.83 -38.5 87.17
-120.05 -41.2 86.43
-120.26 -43.87 85.57
-120.32 -46.42 84.63
-120.24 -48.94 83.59
-120.24 -51.46 82.7
-120.29 -53.99 81.83
-120.1 -56.26 80.6
-120.22 -58.48 79.45
-120.33 -60.66 78.2
-120.24 -62.81 76.84
-120.26 -65.2 75.6
-120.18 -67.48 74.2
-120.23 -70.02 73.25
-120.52 -72.67 72.16
-120.81 -75.19 70.96
-121.18 -77.58 69.65
-121.52 -79.9 68.24
-121.92 -82.27 66.97
-125.25 83.17 83.41
-125.88 85.88 82.84
-124.6 80.45 83.94
-124.22 77.72 84.75
-123.94 75.09 85.93
-123.46 72.43 86.81
-122.93 69.71 87.46
-122.73 67.14 88.15
-122.59 64.64 89.06
-122.25 62 89.9
-121.95 59.4 90.9
-121.96 56.7 91.92
-121.73 53.8 92.2
-121.47 50.99 93.04
-121.27 48.22 94.07
-121.07 45.45 94.8
-120.88 42.69 95.58
-120.53 39.9 96.26
-120.06 37.06 96.59
-119.52 34.23 96.77
-119.19 31.45 97.53
-118.64 28.71 97.7
-118.07 25.97 97.81
-117.65 23.36 97.86
-117.2 20.75 97.82
-116.76 18.09 97.81
-116.45 15.42 98.16
-116.25 12.62 98.27
-115.94 9.82 98.09
-115.72 7.01 98.16
-115.43 4.19 98.08
-115.24 1.34 98.13
-115.02 -1.5 98.11
-115.03 -4.27 97.86
-115.05 -7.04 97.62
-115.01 -9.78 97.12
-114.91 -12.5 96.46
-114.83 -15.21 95.87
-114.79 -17.94 95.36
-114.95 -20.55 94.79
-115.09 -23.14 94.17
-115.09 -25.69 93.41
-115.09 -28.25 92.66
-115.19 -30.82 91.55
-115.34 -33.43 90.58
-115.56 -36.16 89.86
-115.65 -38.76 88.81
-115.73 -41.32 87.6
-115.89 -43.96 86.62
-115.94 -46.5 85.75
-115.97 -49.02 84.82
-116.06 -51.62 84.1
-116.16 -54.22 83.41
-116 -56.46 81.98
-115.78 -58.59 80.34
-115.73 -60.7 78.9
-115.82 -63.01 77.89
-115.91 -65.56 77.02
-115.85 -67.86 75.66
-116.07 -70.39 74.35
-116.45 -73.24 73.66
-116.73 -75.78 72.45
-116.87 -78.01 70.66
-117.13 -80.1 68.85
-117.46 -82.37 67.36
-120.93 83.58 83.84
-121.35 86.18 83.25
-120.43 80.92 84.76
-120.24 78.29 85.68
-119.85 75.73 86.84
-119.39 73.08 87.68
-118.97 70.39 88.56
-118.52 67.71 89.38
-118.27 65.1 89.93
-117.89 62.43 90.71
-117.77 59.68 91.68
-117.62 56.89 92.64
-117.53 54.11 93.38
-117.25 51.28 94.27
-116.99 48.44 95.07
-116.61 45.56 95.63
-116.37 42.76 96.18
-116.01 39.98 96.85
-115.62 37.17 97.41
-115.23 34.39 98.02
-114.97 31.62 98.96
-114.53 28.91 99.33
-113.9 26.15 99.26
-113.4 23.47 99.53
-113.04 20.85 99.72
-112.61 18.2 99.71
-112.34 15.45 99.77
-112.11 12.66 99.75
-111.7 9.9 99.43
-111.54 7.08 99.65
-111.31 4.26 99.65
-111.1 1.42 99.6
-110.91 -1.42 99.76
-110.84 -4.17 99.3
-110.76 -6.92 98.71
-110.8 -9.71 98.47
-110.76 -12.46 97.96
-110.67 -15.19 97.39
-110.65 -17.93 96.92
-110.56 -20.62 96.27
-110.66 -23.19 95.59
[...]
CELL_DATA 49152
SCALARS Temperature float 1
LOOKUP_TABLE default
324.421
319.071
270.725
279.101
316.865
306.845
231.358
281.382
289.05
296.131
308.808
290.647
297.897
275.845
296.016
287.961
302.693
327.709
285.441
302.848
245.188
165.334
157.817
181.445
290.849
255.782
310.435
242.324
284.849
268.439
186.222
279.403
252.725
227.34
257.754
218.585
268.729
281.841
218.766
211.707
205.857
256.449
232.08
279.513
269.343
193.588
261.531
236.743
252.18
192.642
158.066
227.993
263.045
229.685
205.177
205.178
52.5199
236.41
164.65
37.0235
184.044
34.5369
42.356
35.7098
131.969
33.6846
6.65206
19.6481
11.8492
10.7572
10.6207
9.80947
9.99203
6.91804
9.26945
5.33009
7.3311
7.76353
0.537699
0.356842
0.29864
0.280468
0.217151
0.221771
0.233001
0.221686
0.230301
0.257194
0.25034
0.230978
0.726116
0.114437
0.767142
0.0688059
0.154509
0.552778
0.468783
0.119792
0.170798
0.125828
0.109868
0.0486407
0.0627814
0.0389076
0.0418145
0.0276343
0.0203994
0.0132938
0.0144425
0.0176096
0.0204157
0.0261276
0.0188658
0.0257263
0.0129827
0.0052347
0.00406843
0.00585322
0.00761341
0.00547123
0.00278883
0.00373642
0.00531479
0.0056569
0.00589776
0.00631697
1.12805e-05
1.26085e-05
322.357
325.059
301.716
270.588
305.754
316.597
246.629
231.013
273.458
289.217
287.28
308.976
321.703
297.923
318.218
296.095
264.635
300.954
288.889
285.311
276.13
249.825
251.976
164.148
265.753
291.138
270.123
308.564
236.678
267.372
228.285
149.042
254.044
307.472
258.308
268.448
281.354
242.079
212.324
245.337
252.516
297.414
277.712
268.746
61.7299
184.151
235.443
171.673
214.06
190.325
136.015
153.327
74.3701
226.761
177.403
200.463
230.624
190.219
66.1205
225.698
54.2114
228.871
193.762
177.738
14.3543
17.6174
15.0562
13.5048
14.3098
3.32281
9.77094
3.42951
2.94712
3.08308
2.48518
8.09688
1.93646
7.33596
1.17092
0.654386
1.02056
0.313598
0.239608
0.229013
0.316887
0.268173
0.248715
0.562445
0.577189
0.254987
0.238539
0.244812
0.245432
0.199647
0.201193
0.159803
0.139527
0.122644
0.133836
0.142153
0.130327
0.0715
0.0613895
0.0295975
0.0286796
0.0282295
0.0231707
0.0224039
0.0210773
0.0184893
0.0255048
0.0130804
0.0279447
0.0212688
0.00537518
0.00547138
0.00640897
0.00562582
0.00551806
0.00495188
0.0050696
0.00560245
0.00544566
0.00588158
0.0060717
0.00548353
1.04035e-05
9.70156e-06
323.214
322.359
303.93
301.518
269.609
304.722
316.316
247.528
312.733
272.974
306.977
286.182
289.049
324.424
285.949
318.059
274.296
263.529
315.632
290.112
298.323
279.544
286.171
256.382
221.123
265.552
167.823
268.666
253.011
239.861
298.88
241.919
307.593
293.336
268.406
272.778
243.822
275.048
247.412
223.303
296.656
247.348
265.777
248.272
158.652
45.7588
195.957
171.008
213.67
236.626
56.6436
40.5479
61.6931
61.4673
47.6955
40.7963
48.7238
63.563
227.688
260.904
229.84
175.212
173.692
43.0869
23.25
23.6639
14.0787
5.10245
8.29504
9.62651
3.29992
3.72138
2.20325
1.88331
1.88196
2.02295
1.83539
1.75455
1.96603
1.7753
1.45203
1.58064
0.419186
0.600323
1.05006
0.458844
0.755122
1.68541
0.780386
1.04591
0.992167
0.69266
0.2016
0.184961
0.167988
0.165966
0.149291
0.119662
0.111082
0.104997
0.0910826
0.0929606
0.0863815
0.0671703
0.0715175
0.0921877
0.0770245
0.0975539
0.0109446
0.0149443
0.00573813
0.00306131
0.00330565
0.0026329
0.00420921
0.0034707
0.0038825
0.00282943
0.00443667
0.00477143
0.00598832
0.00504081
0.00618614
0.00681195
0.00578297
0.00580218
6.43585e-06
4.93324e-06
307.104
322.286
280.722
303.608
251.305
269.57
304.665
317.119
333.576
312.73
327.688
306.341
256.798
285.407
251.932
283.747
282.683
274.575
304.83
314.997
301.67
296.317
285.445
282.845
239.19
218.325
266.306
166.995
279.063
257.493
303.058
288.545
293.28
244.613
272.374
312.415
275.092
268.475
221.771
215.514
250.176
269.578
250.616
261.995
57.2777
35.3377
54.0643
196.121
58.194
231.564
58.4155
62.5483
47.4757
66.6646
42.9734
245.844
61.9501
198.744
263.513
173.114
175.774
136.16
59.9002
215.626
252.894
25.353
22.8206
19.9564
4.02706
4.38351
2.08115
1.1536
1.13338
2.0557
2.1816
2.31669
2.11151
2.14485
1.79438
1.84566
1.30272
1.4128
0.941867
0.838394
1.59006
1.5426
1.8461
0.624798
0.162731
0.163194
0.140754
0.21515
0.0593002
0.105168
0.08662
0.167064
0.152156
0.142279
0.126129
0.0816611
0.0636297
0.0649282
0.0645125
0.0691794
0.0852108
0.0966962
0.0945576
0.0677008
0.00460563
0.00416237
0.00393755
0.00361245
0.00160514
0.00150783
0.00150633
0.00146444
0.00152134
0.00141635
0.00454211
0.00460629
0.00484578
0.00463934
0.00599075
0.00524553
0.00550357
0.00511514
0.00359973
0.00332162
250.085
308.944
268.851
282.026
285.553
251.601
311.721
304.147
302.686
333.541
287.368
323.418
300.605
252.607
275.083
250.236
293.272
283.262
314.98
305.379
308.877
303.144
255.227
285.648
241.102
239.715
298.114
268.142
277.34
299.056
287.934
288.624
245.202
271.336
312.362
293.673
268.254
216.914
227.666
214.168
267.045
251.63
258.146
236.234
47.4003
53.316
53.3284
50.9355
46.5659
48.7833
53.3271
24.022
43.6911
235.338
246.912
234.706
198.282
184.989
55.5667
178.11
150.321
161.565
214.128
209.272
250.837
255.683
12.7113
15.2496
12.1238
8.952
2.29922
2.34936
2.29154
2.29497
2.18846
2.19678
2.14803
2.0521
1.78602
1.78603
1.62668
1.62614
1.33739
1.39042
1.1863
1.45946
0.0924095
0.211043
0.109849
0.159106
0.127302
0.123967
0.121486
0.126368
0.102706
0.0938774
0.0710139
0.117118
0.107682
0.113141
0.106178
0.104507
0.0994646
0.0976287
0.106624
0.00789218
0.0130681
0.00894672
0.00730859
0.00258498
0.00141991
0.00336
0.00247703
0.00230233
0.00192496
0.00147814
0.00141831
0.00437699
0.00455051
0.00416743
0.00458957
0.00344091
0.00381794
0.00213085
0.00369412
0.000400727
0.00117596
0.000335376
264.85
250.313
259.9
269.351
291.273
285.711
318.503
311.624
295.995
301.7
275.123
286.694
288.197
302.648
306.202
276.275
296.373
293.352
308.779
314.316
312.648
308.096
239.957
250.532
294.428
244.087
300.958
310.55
299.025
291.186
288.144
295.531
270.72
282.681
293.866
238.703
209.083
216.985
228.12
289.748
252.602
206.75
239.787
187.942
183.055
45.4174
43.4471
57.0637
44.4441
164.067
240.491
253.144
232.59
223.808
55.2725
225.337
163.26
210.319
155.498
53.4328
46.1041
217.305
214.602
198.312
152.69
248.122
1.22038
0
0.0235245
11.6877
8.3894
2.17565
1.18215
1.17627
1.56008
1.56894
1.5571
1.53582
1.43376
1.50159
1.40108
1.40719
1.31393
1.29544
0.68032
0.72803
0.132754
0.0781603
0.112159
0.0657834
0.0952421
0.0332914
0.0206065
0.0171862
0.0183695
0.053893
0.0182135
0.0156312
0.0152992
0.0198123
0.0158103
0.0603704
0.0654923
0.0879957
0.0476918
0.00756293
0.00212289
0.00166137
0.00158509
0.00523474
0.00274235
0.00166722
0.00428817
0.00554942
0.00203492
0.00199677
0.00460783
0.00342702
0.00431112
0.00520541
0.00342973
0.00334095
0.00119478
0.00088997
0.000717547
0.000293196
0.000321463
0.000308166
272.048
265.4
298.15
260.284
304.008
291.635
317.337
318.536
293.614
295.942
296.458
275.183
291.984
290.415
276.219
307.325
290.104
295.724
305.474
307.976
303.333
309.999
288.011
240.911
297.622
295.197
309.113
290.546
266.996
286.248
268.995
288.931
278.045
277.303
265.612
235.874
206.807
274.083
288.219
303.068
205.954
247.965
189.602
47.6971
184.483
229.94
140.47
228.066
168.773
170.337
253.897
206.788
222.212
186.64
59.7564
53.3194
40.7728
239.521
155.236
195.399
210.607
179.594
187.943
231.677
7.28114
4.2079
0.277932
0.487933
1.42392
0.193633
0.202644
0.206283
0.217182
0.216001
0.465998
0.932172
0.207127
0.226345
0.194467
0.193743
0.124313
0.120715
0.118823
0.0825293
0.069386
0.171542
0.151356
0.168642
0.770251
0.838297
0.124937
0.100611
0.107884
0.01987
0.0219905
0.0190416
0.0180453
0.0170446
0.0121389
0.0138296
0.0170472
0.0160227
0.0167467
0.0151227
0.00754573
0.00166772
0.00201981
0.00231276
0.0024398
0.00233472
0.00256693
0.00242723
0.00508619
0.00303144
0.001431
0.00147556
0.0014593
0.00153703
0.004944
0.00449514
0.00274348
0.00429294
0.000728136
0.00058737
0.000513263
0.000463316
0.000321802
0.000295879
294.156
273.521
297.005
298.517
302.968
303.156
311.931
316.856
301.825
293.392
314.078
296.487
303.398
291.873
262.606
274.456
303.106
290.881
292.42
306.438
296.083
303.81
292.904
289.977
298.154
296.683
274.37
289.502
252.297
265.315
276.655
268.748
278.481
300.706
267.885
280.99
273.821
301.954
303.147
261.845
245.155
248.187
164.57
66.064
228.193
232.665
221.11
256.796
157.262
240.646
207.827
200.227
117.868
187.329
102.047
73.4828
243.04
222.591
196.218
141.641
180.118
145.807
227.686
20.2628
13.8883
1.27218
1.76734
0.30698
0.949087
1.21328
0.744848
0.188377
0.805555
0.212705
1.0908
1.63472
1.48462
1.12662
0.0743087
0.121528
0.149203
0.130768
0.123774
0.129028
0.101937
0.0855648
0.0174362
0.0547037
0.0774239
0.0928664
0.0167424
0.0303075
0.023459
0.0528092
0.0143455
0.0163678
0.0137549
0.0149024
0.0402613
0.0379587
0.0120038
0.0152311
0.0142458
0.0110439
0.0102536
0.00218152
0.00180123
0.00268942
0.00238048
0.00265103
0.00254452
0.00224638
0.00216645
0.00258915
0.00160867
0.0016439
0.00136573
0.000916908
0.00124391
0.000766041
0.00341388
0.000650633
0.000593081
0.000559235
0.000457033
0.00041596
0.000380161
0.000502987
327.028
297.631
300.536
299.282
284.051
304.478
313.679
313.343
281.664
302.643
270.59
313.452
294.287
302.455
326.337
262.773
315.642
304.523
277.552
292.19
282.639
296.238
290.625
293.548
301.216
298.634
289.407
275.287
296.47
257.295
289.969
281.868
302.715
296.136
282.638
284.852
302.432
297.533
264.131
248.087
250.099
281.316
173.377
248.966
235.779
72.7383
257.301
193.427
234.143
242.915
190.996
239.453
93.8959
144.066
107.203
168.25
222.416
207.064
146.016
246.639
171.501
27.8159
11.692
2.79636
2.703
2.78886
1.16811
0.998628
1.24753
0.862123
0.463928
0.41771
0.818864
0.707925
0.755156
1.24205
1.02407
0.605117
0.179865
0.847244
0.147233
0.145298
0.087652
0.0227877
0.0215261
0.0893339
0.0631417
0.0152992
0.0489036
0.0709666
0.0445746
0.0480647
0.035951
0.0575237
0.0457368
0.0139095
0.0295973
0.0310012
0.030566
0.0367472
0.0359187
0.0112391
0.00233204
0.00453111
0.00114877
0.000482323
0.000503783
0.00133291
0.00189783
0.0017106
0.00189161
0.000844135
0.000696173
0.00132301
0.00119907
0.000964748
0.000824276
0.000921427
0.000663997
0.000619333
0.000575622
0.000629809
0.000518414
0.000582285
0.000475545
0.000513788
0.000511717
0.000433323
310.377
326.266
302.5
298.944
298.412
281.482
297.656
312.027
314.326
281.552
298.671
270.679
302.09
294.833
317.9
330.491
315.8
308.852
276.658
326.667
285.618
323.32
295.286
274.914
304.945
243.078
290.852
295.043
298.344
296.589
283.667
289.173
295.769
295.852
284.399
290.707
297.474
266.744
247.34
276.63
281.121
306.873
247.875
227.677
66.8785
64.4184
50.9037
55.8672
245.341
259.758
242.002
193.615
137.312
42.8578
157.713
197.547
205.874
212.924
241.327
257.317
19.1999
12.3514
10.6735
3.49565
3.07027
3.04851
2.5003
0.908986
0.320529
0.636806
1.28696
0.689273
1.32479
1.20201
0.0127543
0.0617096
0.00208833
0.00649306
0.00486364
0.0723043
0.0135116
0.10049
0.104003
0.117497
0.0885235
0.0321166
0.0191844
0.017602
0.0593867
0.0496977
0.0670202
0.0808804
0.0974208
0.0729558
0.068605
0.0660243
0.0678508
0.06357
0.0668722
0.0668925
0.064867
0.0526422
0.0376891
0.00322159
0.00255668
0.00262069
0.00234074
0.00198137
0.0020055
0.00150642
0.00151758
0.00206544
0.00192709
0.00178918
0.00166573
0.00149847
0.00133242
0.00134381
0.00120505
0.00103462
0.0005036
0.000821649
0.000749756
0.00271631
0.000724794
0.000515349
0.000496598
0.000216148
303.15
310.038
314.342
302.726
308.597
298.636
329.657
298.245
322.493
314.708
313.322
298.625
302.277
330.034
318.329
311.388
309.646
317.67
326.591
335.187
322.985
314.577
274.044
284.611
250.467
245.838
254.719
295.577
280.785
296.209
294.237
283.88
296.155
264.564
289.954
287.35
266.778
269.954
275.811
272.367
305.63
270.351
222.203
226.86
216.068
76.0699
69.5777
269.453
261.078
230.485
197.24
39.7986
40.7257
45.2514
193.4
161.089
206.901
198.612
252.249
221.957
27.6307
24.8058
24.0284
19.781
11.4866
2.13438
2.5951
2.56127
2.27602
1.40151
1.42504
1.4616
0.402455
1.05771
0.247196
0.0430816
0.00571665
0.00219438
0.00225344
0.000936052
0.00598408
0.00790855
0.005496
0.105513
0.0965035
0.0831227
0.0796778
0.057856
0.0940579
0.0799191
0.0901549
0.0905818
0.0893465
0.0930894
0.0887362
0.09249
0.088335
0.0550666
0.0539772
0.0503835
0.0486295
0.0462884
0.04386
0.0245498
0.00212829
0.00211178
0.0019745
0.00207127
0.00205441
0.00203557
0.00190279
0.00190994
0.00168291
0.00171644
0.00160954
0.0016261
0.00149999
0.00143628
0.00128838
0.00121575
0.00132655
0.000515238
0.00187336
0.00211523
0.000456558
0.000600928
0.000515912
0.000369633
303.624
337.367
312.227
311.835
301.394
308.719
330.164
332.922
300.806
322.802
317.192
313.371
330.268
349.497
310.461
321.133
317.872
334.816
335.132
326.562
314.566
274.708
282.872
292.3
251.422
322.436
257.465
321.453
288.778
254.871
211.863
297.342
266.843
244.117
288.855
246.262
270.418
267.842
272.695
262.785
272.091
228.957
228.131
238.019
218.311
256.868
265.35
254.693
224.843
57.0757
54.9589
47.6871
48.0064
42.3122
40.5191
42.5439
38.4514
186.589
222.711
176.785
36.2015
28.9312
30.481
17.3634
8.88936
3.9054
2.39468
2.49183
2.20231
1.96988
1.3397
0.329871
0.129086
0.142624
0.135641
0.18645
0.0698892
0.00455875
0.00513216
0.00626712
0.00625851
0.00640792
0.00568386
0.00609336
0.00282327
0.0475108
0.00645888
0.0792136
0.0783098
0.0866816
0.0847761
0.0725092
0.0728047
0.0541589
0.0453602
0.0139106
0.0239685
0.0270635
0.0235764
0.00305785
0.00269837
0.0340329
0.029985
0.0203226
0.0023782
0.00233478
0.00150246
0.00218356
0.00155943
0.00165068
0.00151784
0.00158358
0.00136252
0.00146868
0.00138637
0.00142619
0.00131285
0.00117814
0.0010324
0.000739072
0.000467484
0.000286226
0.000701237
0.000213281
0.000145123
5.50843e-05
7.85481e-05
0.000342897
337.953
335.365
312.95
334.701
301.618
331.391
331.409
316.628
300.988
302.385
318.183
317.983
349.5
332.427
320.711
320.988
334.867
344.335
326.644
298.319
274.569
299.286
294.036
340.257
322.796
356.307
321.316
340.88
212.872
256.559
128.348
87.8662
244.883
78.3226
247.38
258.518
269.064
239.101
263.63
248.216
233.737
218.901
240.874
192.673
254.743
200.699
250.387
181.848
85.4143
231.771
148.558
233.313
151.121
217.598
158.999
203.685
195.706
200.641
192.479
151.049
188.938
200.008
150.939
202.315
141.455
179.935
0.160309
0.122712
0.132858
0.125122
0.191707
0.167553
0.0226941
0.0199813
0.0103772
0.0192268
0.00357786
0.00520097
0.00462087
0.00351544
0.00465154
0.00557224
0.00562237
0.00592226
0.00452152
0.00462912
0.00426469
0.0031159
0.0179975
0.022579
0.0363881
0.0209323
0.0243152
0.00195679
4.57854e-06
5.76021e-06
8.34513e-06
0.0296587
0.0264874
0.0313829
0.0293432
0.00512132
0.000950127
0.00175431
0.00148636
0.0010359
0.0010134
0.00107048
0.00105559
0.00163701
0.0015595
0.00130965
0.00109666
0.00118527
0.00111867
0.00106964
0.000976543
0.00103575
0.000911196
0.00078567
0.000603908
0.000380158
0.000131445
0.000178991
8.35137e-05
0.000132514
8.0896e-05
0.00020647
336.068
349.898
334.78
351.856
333.906
335.44
316.315
322.024
302.176
324.567
317.606
328.43
333.469
322.466
320.156
316.233
345.041
261.004
298.563
312.637
299.543
333.895
339.115
337.744
356.847
363.973
338.097
332.714
52.0463
173.782
99.0078
99.8061
67.6124
48.4938
34.3993
33.4866
33.8042
39.286
31.2652
50.4751
217.397
210.284
197.684
187.045
201.574
226.472
192.633
250.838
236.918
290.007
240.583
280.878
226.657
209.622
212.473
48.5098
202.873
216.164
166.411
125.824
204.158
149.369
200.324
172.186
9.88006
9.12902
1.21756
0.16538
0.10604
0.128228
0.197703
0.188314
0.174729
0.0284485
0.027818
0.0228495
0.0106579
0.00202813
0.00233497
0.00348542
0.00521484
0.0049658
0.0043744
0.00431197
0.00184153
0.00305974
0.00294631
0.00261361
0.000487264
0.000508395
0.000456681
0.000411696
0.000352015
0.000256644
0.000215992
7.48961e-05
6.52453e-06
9.47263e-06
0.000150927
0.00011074
0.000299933
0.00191761
0.00151816
0.00200552
0.00183919
0.00034175
0.000272273
0.000220516
0.000237698
0.00128747
0.00134673
0.00084888
0.000464186
0.000371718
0.000425963
0.000357226
0.000355964
0.000426532
0.000382563
0.000735655
0.000693509
0.000773511
0.000390933
0.000134132
3.94943e-05
3.29129e-05
3.59203e-05
3.77368e-05
349.565
360.795
351.884
340.833
334.762
329.735
321.49
334.633
324.444
355.433
328.917
344.767
322.341
322.755
315.825
285.656
280.668
265.057
314.288
318.547
334.119
280.898
335.648
302.964
358.045
340.819
321.165
331.012
183.473
75.7341
100.149
97.706
59.2683
64.0726
32.6019
29.6834
64.6023
51.39
55.7274
66.3173
62.427
50.05
64.5238
48.4517
228.413
263.483
251.668
263.13
288.164
290.254
277.148
278.796
200.44
170.161
28.5619
22.912
16.8403
179.344
97.7691
15.769
140.17
141.03
169.929
122.124
17.6464
13.3435
2.08811
0.864087
0.643167
0.707227
0.0561364
0.16203
0.0926167
1.32357
0.0386464
0.0184328
0.00478865
0.0055511
0.00518857
0.00540265
0.00524466
0.00511457
0.00461841
0.0043098
0.00110843
0.00115567
0.00177382
0.00254517
0.000615754
0.000455275
6.20591e-05
6.31408e-05
4.93269e-05
5.29377e-05
6.40115e-05
5.70548e-05
0
0
1.72505e-05
7.13731e-06
1.06682e-05
0.00230555
0.00230882
0.000471901
0.00117344
0.000293938
0.000241247
0.000203458
0.000144962
0.000211645
8.11481e-05
0.000717543
0.000407965
0.000256728
0.000296986
0.000375665
0.000356177
0.000363981
0.000328459
0.000392287
0.000381472
0.000826924
0.000678179
0.00021202
0.000189303
4.10149e-05
0.000207497
0.000283107
360.042
344.792
337.143
346.73
328.383
337.364
333.028
341.715
353.371
349.615
342.987
348.543
320.963
318.74
268.499
281.397
298.838
277.276
314.595
288.362
274.617
274.05
302.511
291.929
291.886
334.929
282.911
318.134
235.774
127.038
161.184
107.687
82.0593
55.5452
59.3125
258.578
110.631
82.0673
70.692
252.581
247.712
276.698
254.393
264.66
262.888
258.961
261.609
253.479
288.124
250.407
273.432
250.653
133.448
219.433
33.0938
26.5723
22.4185
82.3584
37.0078
192.579
122.407
128.085
81.8024
73.8995
178.199
26.7215
190.056
164.796
7.19688e-07
0.000139424
0.000219694
0.00023241
0.000306816
0.00188857
2.77101e-05
0.0492388
0.0262548
0.0114483
0.0068199
0.00220578
0.00171786
0.00244108
0.0015584
0.00183432
0.00171189
0.00114873
0.00455639
0.00114001
0.00457534
0.000264448
0.000115556
6.64849e-05
6.08526e-05
6.0079e-05
4.5321e-05
5.10012e-05
1.11274e-05
7.41233e-06
6.67686e-07
1.55054e-06
3.91204e-07
1.72813e-06
1.47148e-05
2.05364e-05
1.9094e-05
0.00127899
0.00026897
0.000239582
2.70912e-05
9.93628e-05
7.86868e-06
1.40829e-05
1.24611e-05
0.000383323
0.000369956
0.000389503
0.000396551
0.00025242
0.00019097
4.07475e-05
3.70876e-05
3.91068e-05
1.30301e-05
0.000195104
0.00014542
2.64612e-05
1.80495e-05
3.43717e-05
346.177
327.997
344.995
351.092
335.142
334.063
306.533
334.538
325.381
339.946
338.249
344.845
308.914
341.726
322.988
267.44
312.731
300.108
297.693
290.899
271.78
276.842
267.24
292.168
250.435
286.199
254.419
286.831
269.028
253.185
271.791
197.769
264.489
281.702
259.898
253.476
281.25
131.284
251.159
285.249
275.899
280.072
263.436
255.689
257.321
256.378
252.145
258.86
253.404
257.176
256.334
245.778
222.426
154.568
107.091
119.018
63.9169
195.821
190.268
212.459
126.255
197.359
102.036
122.773
27.6238
176.128
1.16477
4.13091
0.694471
0.064219
0.0680824
0.0692683
0.0748879
0.0814388
0.0825619
0.0649685
0
0.000474744
0.000692255
0.000678525
0.000369184
0.000455378
0.000437981
0.000664137
0.000703044
0.0011924
0.00310475
0.00382026
7.50575e-47
2.68438e-47
4.81858e-06
4.91665e-06
1.37861e-06
6.67376e-06
1.03546e-06
1.56813e-06
1.10573e-06
4.18577e-07
2.79259e-07
1.29275e-07
1.57689e-06
1.33472e-06
1.93276e-06
2.12128e-06
2.1989e-06
0.000197776
3.20994e-05
1.011e-05
1.86196e-05
1.81805e-05
1.99937e-05
1.63391e-05
1.89715e-05
1.04912e-05
0.00024721
0.000230296
0.000265003
0.000334861
0.000280018
7.01696e-05
2.42521e-05
3.76337e-05
3.18421e-05
0.000146945
0.000141576
0.00013941
6.73343e-06
6.65985e-06
322.146
330.317
351.95
326.351
331.54
343.196
307.966
305.59
329.895
329.055
350.733
349.943
343.282
349.057
325.847
338.997
313.136
353.248
301.379
333.999
192.022
273.401
176.347
263.908
247.05
250.171
280.128
261.841
297.309
281.853
282.436
294.209
269.636
276.782
269.043
284.095
288.963
296.442
285.637
275.632
279.563
274.129
255.196
280.603
257.734