# vtk DataFile Version 3.0
vtk output
ASCII
DATASET POLYDATA
POINTS 24578 float
-151.53 81.83 75.23
-146.76 79.98 77.9
-147.26 82.51 76.57
-151.22 79.35 76.36
-146.3 77.32 78.47
-150.76 76.75 77.01
-146.01 74.82 79.56
-150.4 74.19 77.98
-145.43 72.07 79.86
-149.95 71.56 78.66
-145.02 69.6 80.58
-149.55 69.11 79.46
-144.64 67.21 81.53
-149.14 66.64 80.2
-144.27 64.77 82.34
-148.68 64.12 80.8
-144.06 62.18 83.1
-148.26 61.63 81.51
-143.83 59.57 83.96
-148.2 59.14 82.73
-143.54 56.98 84.63
-148.02 56.58 83.6
-143.3 54.28 84.95
-147.52 53.77 83.62
-142.71 51.53 84.98
-147.03 50.98 83.68
-142.34 49.05 85.71
-146.66 48.52 84.06
-142.24 46.57 86.6
-146.26 46.05 84.34
-145.97 43.63 84.94
-141.82 44.09 87.11
-141.56 41.44 87.04
-145.67 41.21 85.5
-140.98 38.76 87.5
-145.29 38.66 85.7
-140.75 36.16 87.85
-144.89 36.1 85.85
-144.62 33.53 86.3
-140.46 33.57 88.45
-140.13 30.94 88.56
-144.22 30.94 86.41
-143.81 28.2 86.49
-139.84 28.2 88.9
-143.44 25.45 86.68
-139.6 25.51 89.44
-143.18 22.67 87.12
-139.22 22.78 89.44
-142.9 19.88 87.51
-138.79 20.04 89.71
-142.6 17.15 87.83
-138.39 17.32 89.75
-137.91 14.61 89.73
-142.25 14.42 88.03
-141.99 11.68 88.46
-137.6 11.89 89.94
-141.61 8.95 88.57
-137.22 9.16 90.05
-141.13 6.27 88.48
-136.86 6.45 90.3
-140.68 3.58 88.47
-136.37 3.76 90.16
-140.25 0.89 88.51
-135.88 1.07 90.03
-139.71 -1.79 88.26
-135.64 -1.76 90.02
-135.64 -4.55 89.75
-140 -4.44 88.09
-135.69 -7.09 89
-140.34 -7.12 88.03
-135.79 -9.62 88.23
-140.37 -9.69 87.25
-135.84 -12.19 87.54
-140.43 -12.27 86.54
-135.99 -14.75 87
-140.5 -14.79 85.8
-136.21 -17.35 86.64
-140.62 -17.33 85.19
-136.42 -19.93 86.21
-140.85 -19.94 84.82
-136.49 -22.42 85.34
-140.79 -22.34 83.7
-136.45 -24.91 84.43
-140.78 -24.79 82.73
-136.55 -27.44 83.74
-140.84 -27.3 81.99
-136.57 -29.97 82.98
-140.97 -29.86 81.42
-136.73 -32.54 82.43
-141.02 -32.36 80.63
-136.76 -35.12 81.64
-141.09 -34.97 79.94
-141.32 -37.69 79.69
-136.83 -37.72 80.96
-141.45 -40.33 79.13
-136.9 -40.34 80.32
-137.11 -43 79.41
-141.48 -42.91 78.35
-141.57 -45.38 77.61
-137.04 -45.54 78.64
-141.59 -47.8 76.7
-137.03 -47.91 77.56
-141.86 -50.43 76.49
-137.15 -50.39 76.9
-141.9 -52.84 75.63
-137.27 -52.84 76.11
-141.91 -55.11 74.4
-137.53 -55.19 75.26
-137.48 -57.49 74.21
-141.9 -57.35 73.07
-142.03 -59.74 72.14
-137.7 -59.92 73.43
-142.25 -62.22 71.44
-137.97 -62.48 72.92
-142.57 -64.67 70.67
-138.15 -65.14 72.4
-142.87 -67.1 69.86
-138.34 -67.41 71.12
-143.16 -69.56 69.09
-138.58 -69.8 70.17
-143.42 -71.97 68.22
-138.72 -72 68.84
-143.42 -74.03 66.78
-138.71 -74.17 67.59
-143.52 -76.26 65.69
-138.9 -76.5 66.65
-143.64 -78.59 64.8
-139.03 -78.91 65.88
-143.64 -80.66 63.43
-139.36 -81.09 64.3
-142.41 80.53 78.87
-142.88 83.09 77.59
-141.83 77.87 79.86
-141.49 75.33 80.8
-140.97 72.61 81.19
-140.47 70.13 81.77
-140.01 67.69 82.47
-139.94 65.21 83.59
-139.84 62.72 84.64
-139.44 60.04 85.13
-139.12 57.42 85.86
-138.88 54.8 86.42
-138.56 52.14 86.78
-138.19 49.56 87.25
-137.83 46.99 87.76
-137.58 44.31 88.01
-137.31 41.63 88.23
-137.03 38.95 89.21
-136.57 36.22 89.77
-136.22 33.57 90.06
-135.88 30.91 90.36
-135.74 28.24 91.1
-135.47 25.56 91.56
-134.94 22.88 91.41
-134.47 20.19 91.43
-134.08 17.49 91.57
-133.61 14.8 91.52
-133.09 12.1 91.2
-132.71 9.37 91.23
-132.3 6.67 91.32
-131.94 3.96 91.53
-131.76 1.11 91.67
-131.5 -1.71 91.62
-131.31 -4.41 90.89
-131.1 -7.09 90.13
-131.35 -9.7 89.79
-131.55 -12.29 89.33
-131.63 -14.81 88.62
-131.74 -17.34 87.96
-131.85 -19.85 87.19
-132.06 -22.42 86.66
-132.19 -25.02 86.17
-132.25 -27.57 85.48
-132.26 -30.09 84.65
-132.44 -32.72 84.26
-132.56 -35.36 83.72
-132.63 -37.97 83.04
-132.75 -40.58 81.94
-132.83 -43.16 80.72
-132.77 -45.71 79.94
-132.75 -48.3 79.25
-132.77 -50.64 78.12
-132.8 -52.99 77
-132.95 -55.32 76.2
-133.13 -57.69 75.53
-133.33 -60.11 74.69
-133.5 -62.48 73.72
-133.64 -65.09 73
-133.72 -67.59 72.04
-133.86 -69.81 70.74
-134.01 -72.03 69.43
-134.18 -74.44 68.63
-134.35 -76.86 67.84
-134.77 -79.33 66.76
-135.07 -81.54 65.2
-138.04 81.11 79.93
-138.51 83.66 78.64
-137.48 78.45 80.95
-136.81 75.7 81.58
-136.53 73.2 82.68
-136.2 70.85 83.66
-136.01 68.35 84.53
-135.78 65.76 85.17
-135.49 63.19 85.82
-135.19 60.56 86.38
-134.98 57.99 87.45
-134.76 55.37 88.25
-134.53 52.77 88.88
-134 50.11 89.1
-133.65 47.3 89.03
-133.3 44.56 89.42
-133.29 41.92 90.17
-132.89 39.2 91
-132.5 36.43 91.58
-132.05 33.68 92.21
-131.7 30.98 92.36
-131.44 28.31 92.66
-131.04 25.67 93.02
-130.62 23.02 93.01
-130.15 20.36 93.11
-129.82 17.66 93.35
-129.27 14.97 93.05
-128.74 12.27 92.73
-128.4 9.55 92.87
-127.96 6.85 92.86
-127.84 4 93.22
-127.59 1.17 93.17
-127.27 -1.64 92.97
-127.25 -4.36 92.57
-127.15 -7.08 92.07
-127.17 -9.83 91.83
-127.29 -12.38 91.16
-127.29 -14.86 90.23
-127.44 -17.42 89.6
-127.57 -19.97 88.96
-127.76 -22.53 88.35
-127.82 -25.1 87.72
-127.85 -27.64 86.95
-127.95 -30.27 86.46
-128.2 -32.95 86.24
-128.25 -35.54 85.49
-128.5 -38.26 84.8
-128.59 -40.83 83.55
-128.62 -43.36 82.3
-128.5 -45.86 81.36
-128.57 -48.51 80.64
-128.51 -50.96 79.6
-128.63 -53.39 78.68
-128.82 -55.89 78.24
-129.15 -58.39 77.85
-129.06 -60.46 76.29
-128.99 -62.4 74.44
-128.98 -64.79 73.19
-129.01 -67.15 71.96
-128.97 -69.58 70.84
-129.28 -72.05 69.98
-129.48 -74.55 69.36
-130.01 -77.21 68.65
-130.42 -79.71 67.63
-130.79 -82.03 66.21
-133.82 81.84 81.46
-134.36 84.47 80.38
-133.19 79.09 82.22
-132.49 76.28 82.7
-131.95 73.65 83.71
-131.93 71.29 85
-131.87 68.9 86.17
-131.5 66.27 86.57
-131.13 63.64 86.94
-130.87 61.02 87.58
-130.68 58.45 88.47
-130.46 55.86 89.34
-130.18 53.24 90.02
-129.88 50.44 90.31
-129.64 47.69 90.79
-129.42 44.94 91.36
-129.23 42.2 92.03
-128.71 39.37 92.41
-128.45 36.65 93.48
-128.03 33.86 94.03
-127.47 31.03 94.24
-127.19 28.41 94.71
-126.88 25.78 95.12
-126.32 23.16 94.88
-125.8 20.53 94.74
-125.36 17.84 94.64
-124.86 15.16 94.43
-124.49 12.44 94.52
-124.2 9.71 94.8
-123.95 6.88 94.78
-123.68 4.05 94.73
-123.4 1.23 94.62
-123.18 -1.6 94.69
-123.37 -4.41 94.84
-123.31 -7.12 94.32
-123.16 -9.79 93.63
-122.95 -12.42 92.76
-123.09 -14.99 92.12
-123.27 -17.57 91.56
-123.4 -20.13 90.9
-123.5 -22.66 90.14
-123.53 -25.22 89.42
-123.57 -27.78 88.7
-123.68 -30.42 88.22
-123.74 -33.02 87.62
-123.94 -35.69 86.77
-124.14 -38.36 85.91
-124.27 -40.96 84.88
-124.51 -43.67 84.17
-124.44 -46.18 83.04
-124.36 -48.68 81.9
-124.32 -51.14 80.87
-124.34 -53.66 80.01
-124.65 -56.22 79.72
-124.85 -58.64 79.12
-124.76 -60.62 77.46
-124.57 -62.46 75.52
-124.49 -64.69 73.94
-124.51 -67.1 72.74
-124.57 -69.65 71.8
-124.65 -72.26 70.99
-125.14 -74.86 70.13
-125.57 -77.36 69.04
-126.01 -79.84 67.96
-126.39 -82.16 66.58
-129.58 82.52 82.46
-130.23 85.32 82
-128.9 79.77 83.09
-128.4 77.11 83.84
-127.98 74.41 84.96
-127.56 71.77 85.9
-127.33 69.24 86.57
-127.15 66.76 87.43
-126.86 64.14 88.01
-126.52 61.49 88.81
-126.36 58.96 89.84
-126.14 56.38 90.8
-125.97 53.53 91.15
-125.51 50.64 91.5
-125.42 47.93 92.31
-125.22 45.19 93.14
-125.05 42.45 93.81
-124.64 39.66 94.38
-124.31 36.88 95.2
-123.77 34.05 95.42
-123.26 31.23 95.69
-122.78 28.52 96.11
-122.44 25.87 96.38
-121.98 23.27 96.26
-121.42 20.65 96.06
-121.04 17.96 96.08
-120.68 15.29 96.36
-120.38 12.57 96.56
-120.17 9.75 96.72
-119.91 6.93 96.66
-119.55 4.12 96.37
-119.27 1.3 96.28
-119.07 -1.54 96.32
-119.25 -4.36 96.51
-119.22 -7.1 96.08
-119.04 -9.77 95.31
-119 -12.5 94.8
-118.91 -15.21 94.19
-119.08 -17.79 93.59
-119.2 -20.38 92.98
-119.3 -22.91 92.18
-119.31 -25.47 91.43
-119.31 -28 90.63
-119.33 -30.55 89.87
-119.45 -33.15 88.84
-119.6 -35.8 87.91
-119.83 -38.5 87.17
-120.05 -41.2 86.43
-120.26 -43.87 85.57
-120.32 -46.42 84.63
-120.24 -48.94 83.59
-120.24 -51.46 82.7
-120.29 -53.99 81.83
-120.1 -56.26 80.6
-120.22 -58.48 79.45
-120.33 -60.66 78.2
-120.24 -62.81 76.84
-120.26 -65.2 75.6
-120.18 -67.48 74.2
-120.23 -70.02 73.25
-120.52 -72.67 72.16
-120.81 -75.19 70.96
-121.18 -77.58 69.65
-121.52 -79.9 68.24
-121.92 -82.27 66.97
-125.25 83.17 83.41
-125.88 85.88 82.84
-124.6 80.45 83.94
-124.22 77.72 84.75
-123.94 75.09 85.93
-123.46 72.43 86.81
-122.93 69.71 87.46
-122.73 67.14 88.15
-122.59 64.64 89.06
-122.25 62 89.9
-121.95 59.4 90.9
-121.96 56.7 91.92
-121.73 53.8 92.2
-121.47 50.99 93.04
-121.27 48.22 94.07
-121.07 45.45 94.8
-120.88 42.69 95.58
-120.53 39.9 96.26
-120.06 37.06 96.59
-119.52 34.23 96.77
-119.19 31.45 97.53
-118.64 28.71 97.7
-118.07 25.97 97.81
-117.65 23.36 97.86
-117.2 20.75 97.82
-116.76 18.09 97.81
-116.45 15.42 98.16
-116.25 12.62 98.27
-115.94 9.82 98.09
-115.72 7.01 98.16
-115.43 4.19 98.08
-115.24 1.34 98.13
-115.02 -1.5 98.11
-115.03 -4.27 97.86
-115.05 -7.04 97.62
-115.01 -9.78 97.12
-114.91 -12.5 96.46
-114.83 -15.21 95.87
-114.79 -17.94 95.36
-114.95 -20.55 94.79
-115.09 -23.14 94.17
-115.09 -25.69 93.41
-115.09 -28.25 92.66
-115.19 -30.82 91.55
-115.34 -33.43 90.58
-115.56 -36.16 89.86
-115.65 -38.76 88.81
-115.73 -41.32 87.6
-115.89 -43.96 86.62
-115.94 -46.5 85.75
-115.97 -49.02 84.82
-116.06 -51.62 84.1
-116.16 -54.22 83.41
-116 -56.46 81.98
-115.78 -58.59 80.34
-115.73 -60.7 78.9
-115.82 -63.01 77.89
-115.91 -65.56 77.02
-115.85 -67.86 75.66
-116.07 -70.39 74.35
-116.45 -73.24 73.66
-116.73 -75.78 72.45
-116.87 -78.01 70.66
-117.13 -80.1 68.85
-117.46 -82.37 67.36
-120.93 83.58 83.84
-121.35 86.18 83.25
-120.43 80.92 84.76
-120.24 78.29 85.68
-119.85 75.73 86.84
-119.39 73.08 87.68
-118.97 70.39 88.56
-118.52 67.71 89.38
-118.27 65.1 89.93
-117.89 62.43 90.71
-117.77 59.68 91.68
-117.62 56.89 92.64
-117.53 54.11 93.38
-117.25 51.28 94.27
-116.99 48.44 95.07
-116.61 45.56 95.63
-116.37 42.76 96.18
-116.01 39.98 96.85
-115.62 37.17 97.41
-115.23 34.39 98.02
-114.97 31.62 98.96
-114.53 28.91 99.33
-113.9 26.15 99.26
-113.4 23.47 99.53
-113.04 20.85 99.72
-112.61 18.2 99.71
-112.34 15.45 99.77
-112.11 12.66 99.75
-111.7 9.9 99.43
-111.54 7.08 99.65
-111.31 4.26 99.65
-111.1 1.42 99.6
-110.91 -1.42 99.76
-110.84 -4.17 99.3
-110.76 -6.92 98.71
-110.8 -9.71 98.47
-110.76 -12.46 97.96
-110.67 -15.19 97.39
-110.65 -17.93 96.92
-110.56 -20.62 96.27
-110.66 -23.19 95.59
[...]
CELL_DATA 49152
SCALARS Temperature float 1
LOOKUP_TABLE default
0.0397965
0.0365866
0.0870427
0.0502215
0.0233824
0.0177886
0.0629984
0.0627449
0.0611529
0.097603
0.0904591
0.0837015
0.0783127
0.060831
0.0126415
0.015981
0.0178563
0.0604207
0.0869592
0.0952497
0.0949117
0.0527252
0.00932454
0.00769335
0.00956044
0.00933263
0.0110462
0.0101253
0.0112716
0.0100192
0.00690848
0.00707957
0.00347672
0.00334485
0.00533427
0.00487572
0.00632721
0.00726296
0.00444644
0.00412759
0.00327295
0.00588014
0.0049057
0.00645754
0.00580443
0.00218334
0.00491253
0.00380716
0.00416573
0.000514277
0.000720942
0.000628033
0.00312297
9.68258e-05
6.3635e-05
6.44404e-05
3.41612e-05
5.52287e-05
0.000168052
2.38895e-05
1.09127e-05
2.99992e-05
2.15313e-05
1.9234e-05
5.2138e-05
4.28346e-05
3.22047e-06
1.00945e-05
3.09908e-06
2.83269e-06
2.81222e-06
2.60726e-06
2.65846e-06
1.94629e-06
2.47573e-06
1.55127e-06
1.99801e-06
2.08997e-06
3.36581e-07
2.40683e-06
1.69719e-06
3.60148e-07
5.3631e-07
6.15187e-07
5.36457e-07
6.94392e-07
7.44678e-07
5.52713e-07
5.44761e-07
6.71477e-07
1.00771e-06
2.44421e-07
6.58156e-07
3.32052e-07
3.60821e-07
4.34058e-07
4.37043e-07
4.0221e-07
4.04552e-07
4.47516e-07
5.44604e-07
6.5741e-07
2.04064e-06
1.61315e-06
2.72877e-06
1.71834e-06
2.3649e-06
1.19172e-06
1.17785e-06
1.17532e-06
1.09593e-06
1.85995e-06
1.26528e-06
5.57544e-07
4.23319e-07
1.58998e-06
6.57717e-07
9.11598e-06
1.00297e-05
4.7034e-05
5.1782e-05
3.58344e-05
2.78381e-05
1.73965e-05
1.67155e-05
1.61443e-05
9.44367e-06
1.02128e-05
0.0381698
0.0392785
0.774064
0.105894
0.0317681
0.0355688
0.123893
0.0254555
0.018725
0.0208144
0.0182471
0.0226064
0.0222771
0.0870758
0.0638067
0.0138122
0.0592889
0.0905667
0.0923484
0.0870258
0.00601705
0.0142543
0.0109869
0.0122657
0.013678
0.0107854
0.0158166
0.0515974
0.0518069
0.0560598
0.00349623
0.0129118
0.00338797
0.00445688
0.00560588
0.00658694
0.00694072
0.00146616
0.00172051
0.00163973
0.0037501
0.00684127
0.00681834
0.00609235
0.000569972
0.000265933
0.000346635
0.000157247
7.45893e-05
0.000364441
0.000361303
0.000388818
5.89255e-05
6.4606e-05
6.79419e-05
7.46691e-05
8.0215e-05
7.81217e-05
7.21616e-05
7.15946e-05
4.11704e-05
6.458e-05
3.88523e-05
1.53922e-05
1.46432e-05
1.32876e-05
3.86703e-06
3.50332e-06
3.72618e-06
1.81664e-06
2.66012e-06
7.99152e-07
7.9976e-07
1.6271e-06
7.38791e-07
2.25086e-06
6.49905e-07
2.07468e-06
7.91636e-07
4.38693e-07
7.0547e-07
1.64134e-06
3.67216e-07
4.56907e-07
3.39832e-07
3.97834e-07
7.33293e-07
7.90116e-07
8.03013e-07
7.03154e-07
7.65883e-07
7.49197e-07
2.56387e-07
6.08407e-07
1.44493e-06
3.9387e-07
3.91858e-07
4.26634e-07
3.1382e-07
3.59068e-07
3.8204e-07
2.72392e-06
5.42819e-07
2.86447e-06
1.91121e-06
1.94312e-06
2.49345e-06
1.04858e-06
1.4622e-06
1.87349e-06
2.46885e-06
1.71016e-05
1.77078e-05
3.01964e-05
3.90404e-05
2.44171e-05
2.51132e-05
4.25945e-05
4.13068e-05
3.25333e-05
3.33165e-05
1.72676e-05
1.51483e-05
1.362e-05
1.33956e-05
1.75609e-05
1.2602e-05
1.07772e-05
0.0375675
0.036164
0.101069
0.107063
0.826061
1.03821
0.218355
0.0655507
0.0209852
0.021418
0.0223231
0.0202184
0.0194566
0.0212559
0.0249211
0.0790235
0.125544
0.103061
0.0714669
0.0170935
0.0171483
0.0157641
0.0147624
0.0150102
0.0139548
0.0129835
0.011851
0.0133454
0.00593555
0.0083717
0.0104427
0.00862973
0.0103288
0.0110408
0.00781199
0.00827245
0.00439371
0.0084072
0.00550612
0.00349912
0.00652462
0.00090363
0.00235494
0.00101556
0.000594574
0.000317189
6.27368e-05
4.68865e-05
5.46411e-05
7.4929e-05
0.000265487
7.01849e-05
7.12917e-05
6.67805e-05
5.9712e-05
5.94147e-05
5.57311e-05
6.46547e-05
6.89745e-05
0.000122826
0.000114673
8.1072e-05
7.06924e-05
4.78701e-05
9.37632e-06
1.03131e-05
4.77312e-06
3.27664e-06
5.53901e-06
5.57656e-06
2.54273e-06
4.1035e-06
7.02572e-07
6.32335e-07
6.32392e-07
6.5279e-07
6.23784e-07
5.94113e-07
6.57057e-07
6.37012e-07
5.48084e-07
7.30542e-07
3.16529e-07
4.80994e-07
6.80294e-07
3.64939e-07
7.13232e-07
9.41757e-07
6.33011e-07
7.31505e-07
6.5193e-07
6.30019e-07
2.19159e-06
1.83018e-06
2.36583e-06
1.4909e-06
4.73985e-07
4.53733e-07
4.89828e-07
5.05123e-07
2.59943e-06
2.92762e-06
2.39402e-06
3.24158e-06
1.81831e-06
1.00127e-06
2.00415e-06
9.69899e-07
9.04045e-06
4.21366e-06
1.00268e-05
1.86819e-05
1.89749e-05
2.39833e-05
3.98556e-05
3.56093e-05
4.74899e-05
2.52516e-05
2.46192e-05
2.33491e-05
2.31197e-05
2.32244e-05
4.56932e-05
3.59763e-05
3.31236e-05
2.84221e-05
3.01425e-05
5.79354e-06
0.0836518
0.0721378
0.179118
0.0789149
0.580873
0.163134
0.173816
0.191963
0.263407
0.16717
0.231816
0.104512
0.113602
0.0904341
0.148633
0.133412
0.145798
0.170166
0.141155
0.727648
0.125031
0.110362
0.0952263
0.0892351
0.0652738
0.0574239
0.0574533
0.00973786
0.00858371
0.0108373
0.0126242
0.0114983
0.0112589
0.00351767
0.00333874
0.0118164
0.00827359
0.00680882
0.00161871
0.00114185
0.00387102
0.00540239
0.00418168
0.00542464
0.000349044
0.000172726
6.61568e-05
7.33937e-05
7.78372e-05
0.000105575
0.00010777
9.60483e-05
0.000100792
7.51536e-05
6.25826e-05
0.000141913
6.51137e-05
6.37881e-05
0.000175189
9.24037e-05
9.12298e-05
5.53154e-05
6.4705e-05
5.58094e-05
0.000177092
2.31702e-05
1.86186e-05
1.01641e-05
4.41232e-06
4.70566e-06
7.95458e-07
5.55193e-07
5.72932e-07
6.84838e-07
7.40487e-07
7.58629e-07
7.16069e-07
7.17649e-07
6.54262e-07
6.45325e-07
1.69666e-06
1.41133e-06
1.17267e-06
1.02036e-06
6.04339e-07
5.88698e-07
8.79827e-07
5.17142e-07
2.07149e-07
2.07829e-07
2.82953e-07
3.66231e-07
3.91871e-07
2.13554e-06
4.89067e-07
2.545e-06
2.59955e-06
1.45279e-06
1.67576e-06
5.77086e-07
1.4022e-06
1.53714e-06
3.17756e-07
3.36409e-07
5.81592e-07
6.51e-07
6.95632e-07
8.40226e-07
3.10761e-05
1.55415e-05
1.87177e-05
1.87175e-05
9.01243e-06
7.84259e-06
8.42234e-06
8.06456e-06
9.38831e-06
9.44358e-06
2.05552e-05
2.10797e-05
2.18434e-05
2.31184e-05
2.45636e-05
7.8864e-05
8.67338e-05
9.59033e-05
0.00013877
0.000138851
0.257472
0.15168
1.00789
1.04575
1.05814
0.758481
0.248333
0.200357
0.179142
0.295087
0.986686
1.25552
1.25645
0.902731
0.903517
0.182714
0.631902
0.148582
0.56112
0.135805
0.156161
0.105019
0.080882
0.093871
0.0675984
0.0652889
0.0655216
0.0459649
0.0452003
0.0168116
0.012295
0.0117583
0.00418914
0.0085276
0.0118094
0.00987047
0.00538226
0.0113009
0.0269461
0.00862637
0.037318
0.00362605
0.00344799
0.00158227
0.00171111
0.000446636
0.000122757
0.000119191
0.000125983
0.000107239
0.000120397
0.000239726
0.000162636
0.000255574
0.000236524
0.000245871
0.000126744
4.41647e-05
5.66173e-05
4.3229e-05
5.30419e-05
5.5126e-05
5.22694e-05
5.8039e-05
0.000188962
0.000196995
8.39806e-06
1.25733e-05
9.21134e-06
3.98268e-06
1.72757e-06
2.35123e-06
9.18147e-07
8.95508e-07
8.57837e-07
8.25442e-07
1.43723e-06
7.60964e-07
2.2817e-06
2.20804e-06
2.01419e-06
1.86995e-06
1.58838e-06
1.38898e-06
1.11181e-06
5.6792e-07
1.23504e-07
2.72405e-07
1.71992e-07
2.1102e-07
1.85666e-07
1.84679e-07
3.1767e-07
1.5774e-07
2.35295e-07
2.93997e-07
6.32207e-07
1.56919e-06
1.41105e-06
1.62229e-06
3.80933e-07
4.36304e-07
4.31847e-07
4.50987e-07
5.99434e-07
2.83572e-06
1.98185e-06
1.78078e-05
3.09711e-05
3.6766e-05
1.85842e-05
1.28337e-05
9.36614e-06
1.08625e-05
1.10952e-05
9.32328e-06
9.57401e-06
9.95045e-06
1.17436e-05
1.47802e-05
1.64523e-05
1.12726e-05
1.28807e-05
1.18441e-05
7.03876e-05
0.000100701
0.000110072
0.000107457
1.3252
1.22339
1.21105
1.21636
1.12218
1.05206
0.825541
0.425137
0.761132
0.86671
0.94858
1.03333
1.02409
1.12246
1.10725
0.637819
0.713591
0.591191
0.669834
0.754146
0.684134
0.56532
0.113746
0.107942
0.092622
0.0480013
0.0422511
0.0246546
0.0186113
0.0315479
0.0111236
0.0145042
0.00713657
0.00937469
0.00998527
0.0363977
0.0125463
0.0140426
0.0322934
0.00938696
0.00488352
0.000461254
0.000655965
0.00145258
0.000728466
0.000367675
0.000291095
0.000240201
0.000285404
0.000268099
0.00032138
0.000340645
0.000291658
0.000282392
9.78876e-05
0.000236596
0.000151007
0.000117344
3.82717e-05
5.28804e-05
4.64068e-05
4.13035e-05
4.90879e-05
4.12347e-05
1.90319e-05
3.44245e-05
4.38822e-06
0
6.35467e-07
5.46301e-06
4.47035e-06
1.36748e-06
6.09312e-07
5.4099e-07
8.83301e-07
1.00323e-06
1.62771e-06
1.79306e-06
1.6889e-06
2.03576e-06
1.8858e-06
1.81777e-06
1.63418e-06
1.53085e-06
1.28424e-06
8.86488e-07
1.94907e-07
6.91528e-08
2.50061e-07
7.37953e-08
1.73175e-07
5.58388e-08
1.115e-07
3.88835e-07
4.49628e-07
4.89906e-07
5.27153e-07
5.17626e-07
5.43323e-07
4.89159e-07
4.52561e-07
3.70358e-07
2.75272e-07
2.98682e-07
9.45345e-06
8.10855e-06
1.08522e-05
6.11873e-06
9.18236e-06
7.55581e-06
8.70991e-06
6.07005e-06
8.76061e-06
7.76835e-06
1.16515e-05
1.1689e-05
1.0048e-05
1.49382e-05
1.90312e-05
1.54617e-05
1.52212e-05
1.74242e-05
2.7351e-05
1.69458e-05
3.07444e-05
8.09911e-05
8.79102e-05
0.000106068
1.76986
1.70437
1.48235
1.37806
1.18801
1.03471
0.762222
0.785179
1.01764
1.0129
1.02047
0.275991
0.231313
0.261951
0.285331
1.00403
0.908745
0.92808
0.838907
0.844173
0.195508
0.663258
0.149958
0.0784535
0.0880503
0.0805109
0.0823145
0.0855589
0.0803622
0.0847041
0.0828741
0.0868357
0.0829257
0.0824094
0.0773794
0.0665452
0.0597243
0.0560992
0.0562234
0.0545492
0.00011144
0.000300855
0.000397445
0.00172238
0.000535735
0.000567112
0.00026601
0.000352856
0.000300437
0.000278379
0.000344338
0.000228723
0.000284383
0.000155262
0.000216321
0.000201423
0.000171788
0.000118178
4.73786e-05
6.53672e-05
7.92972e-05
6.85046e-05
7.51743e-05
0.000188362
4.79981e-07
2.74698e-07
1.50496e-06
3.16577e-06
2.54605e-06
1.94475e-06
1.57632e-07
1.63057e-07
1.53492e-07
1.56503e-07
2.48849e-07
5.60559e-07
2.08263e-07
2.19912e-07
1.95057e-07
2.00671e-07
1.16846e-07
1.22415e-07
8.20364e-08
7.00467e-08
5.98407e-08
5.17994e-07
5.47271e-07
1.5614e-07
4.01142e-07
4.25111e-07
1.213e-06
2.1486e-07
4.19627e-07
4.50816e-07
4.40876e-07
4.4991e-07
4.80118e-07
4.72755e-07
4.92062e-07
5.24997e-07
5.61978e-07
6.40701e-07
6.98278e-07
9.69867e-07
1.38476e-06
9.69649e-06
1.06177e-05
1.12408e-05
9.17114e-06
1.06536e-05
9.35094e-06
7.80208e-06
6.9972e-06
8.30255e-06
2.17158e-05
2.03803e-05
1.80154e-05
2.6292e-05
3.34978e-05
4.21608e-05
4.54413e-05
2.9023e-05
5.85829e-05
6.60936e-05
7.48562e-05
7.84988e-05
8.11102e-05
9.46028e-05
1.57462
1.51267
1.45351
1.42304
1.44188
1.40386
1.39879
1.45758
1.47198
1.37446
1.34174
1.07283
1.06324
0.713985
0.575378
0.842096
0.848265
0.453234
0.186913
0.192225
0.166566
0.176351
0.118191
0.111465
0.0985915
0.0971467
0.0937293
0.0954243
0.0937235
0.0928173
0.0915737
0.0859353
0.0827488
0.0793814
0.0693509
0.0666004
0.060746
0.0576687
0.0547884
0.048483
0.0422711
0.0353087
0.0203239
0.0021272
0.00239775
0.00307317
0.00250686
0.0028217
0.000249781
0.00043643
0.000230044
0.000193657
0.00053988
0.000320785
0.000237854
0.000210422
0.000128226
0.000137692
7.42599e-05
6.119e-05
4.35443e-05
2.94855e-05
9.57568e-05
6.38648e-06
4.64475e-06
3.51188e-06
2.15017e-06
1.11638e-06
1.47017e-06
2.05629e-06
1.1261e-06
1.97387e-07
1.17101e-06
2.27898e-07
1.22634e-06
8.23294e-07
1.82466e-06
6.29191e-07
5.53905e-08
5.80084e-08
7.115e-08
6.27587e-08
6.12883e-08
6.70295e-08
1.22046e-07
1.4371e-07
2.1315e-07
2.41805e-07
1.66917e-07
1.86307e-07
5.11743e-07
9.03223e-07
5.23709e-07
4.80281e-07
3.93494e-07
3.66594e-07
4.04995e-07
4.22234e-07
4.35922e-07
4.53962e-07
4.91758e-07
5.91497e-07
6.48503e-07
1.03647e-06
1.21482e-06
6.35566e-06
7.7484e-06
1.21214e-05
9.26753e-06
1.12486e-05
1.29071e-05
9.92878e-06
1.23666e-05
9.45513e-06
1.55711e-05
1.23375e-05
2.00706e-05
1.13284e-05
3.53565e-05
5.36244e-05
6.71198e-05
9.15133e-05
0.000116847
0.000101145
0.000113288
9.3038e-05
8.38624e-05
4.2322e-05
0.63768
0.593378
0.531918
0.526191
0.594164
1.01425
0.835685
0.79266
1.18399
1.33836
1.39379
1.59464
1.53305
1.53478
1.42827
0.532539
0.20061
0.204879
0.156086
0.181705
0.122193
0.159924
0.109976
0.105291
0.112343
0.106254
0.103865
0.0942677
0.0959629
0.0733901
0.0756684
0.0653198
0.0667234
0.0657567
0.0555586
0.0509749
0.0526508
0.0442553
0.0272561
0.0236058
0.0226352
0.0249836
0.00533634
0.00688036
0.00388532
0.00261762
0.00289417
0.00305057
0.00292591
0.00314528
0.00196757
0.0023012
0.00109544
0.00107596
0.000723677
0.00047607
0.000176486
0.000279603
0.000114736
0.000271182
3.20654e-05
2.27452e-05
2.34061e-06
1.3058e-06
1.00788e-06
1.04188e-06
1.04917e-06
7.99967e-07
7.4728e-07
7.46668e-07
3.95975e-07
3.52645e-07
7.04297e-07
6.07535e-07
6.4763e-07
1.30193e-06
2.70313e-05
9.36901e-07
9.43296e-07
4.24089e-07
1.75713e-07
8.64866e-08
9.50027e-08
2.60383e-08
2.69682e-08
6.24439e-08
1.2109e-07
1.68755e-07
1.48468e-07
1.4494e-07
3.36891e-07
3.78162e-07
3.08394e-07
3.75952e-07
3.58509e-07
4.84672e-07
3.35147e-07
5.67511e-07
4.11422e-07
5.23349e-07
4.59929e-07
4.50497e-07
2.32088e-06
4.40728e-07
1.29406e-06
1.56093e-06
4.11821e-06
2.34306e-06
6.64311e-06
7.06825e-06
3.09989e-05
3.05038e-05
3.4906e-05
2.93949e-05
3.35937e-05
3.23547e-05
2.13342e-05
2.2776e-05
2.55198e-05
1.77712e-05
2.85849e-05
2.88251e-05
6.84361e-05
8.15129e-05
9.55943e-05
0.000116654
0.000104664
0.000124302
1.95867
2.23258
2.48737
2.28939
2.00834
1.8376
1.75612
1.75991
1.77317
1.49726
1.45122
1.01247
0.933671
0.478895
0.418378
0.442042
0.339195
0.266414
0.168661
0.337817
0.174026
0.362483
0.22058
0.161023
0.197876
0.109718
0.11345
0.119762
0.129101
0.140606
0.0878247
0.0831743
0.0833059
0.0959891
0.0495067
0.0604743
0.0392252
0.0378677
0.035307
0.0391726
0.0407136
0.0859284
0.00835369
0.00328328
0.00398332
0.00334048
0.00263664
0.0034111
0.00330558
0.00397702
0.00250735
0.000159544
0.00152973
0.00195919
0.00159281
0.00139135
0.000398617
0.000453874
0.000437622
0.00235121
1.76815e-05
1.03099e-05
9.12096e-06
5.92837e-06
1.2127e-06
1.14201e-06
1.4673e-06
1.17151e-06
1.23257e-06
3.51477e-07
5.0022e-07
3.20684e-07
8.63517e-07
6.9252e-07
5.65905e-08
1.79285e-07
5.39938e-08
1.69567e-07
1.19708e-07
7.47356e-08
9.4493e-08
1.50205e-07
3.49964e-07
1.47925e-07
8.31346e-08
3.53075e-08
9.61268e-08
6.94447e-08
1.65766e-07
1.35337e-07
1.60644e-07
2.37892e-07
1.91111e-07
1.4957e-07
2.67121e-07
2.14615e-07
2.03764e-07
2.04916e-07
2.54648e-06
1.75038e-06
3.65025e-06
1.59155e-06
5.59457e-06
6.43892e-06
8.78025e-06
9.79698e-06
6.67562e-06
7.88747e-06
9.42491e-06
6.49819e-06
8.37827e-06
3.21838e-05
0.000257961
3.18027e-05
0.000287781
3.50592e-05
1.88622e-05
2.142e-05
2.16574e-05
1.78432e-05
2.23122e-05
3.40728e-05
3.15254e-05
3.75966e-05
0.000559541
0.000181581
0.000539978
0.000191233
3.18602
3.08221
2.27383
2.66754
2.05188
2.02256
1.86051
1.7016
1.59308
1.42894
1.46942
1.02755
0.366417
0.505794
0.459032
0.406432
0.377177
0.410491
0.413462
0.467023
0.393031
0.346082
0.153909
0.182395
0.138208
0.125878
0.126621
0.125749
0.106306
0.114244
0.0934517
0.0761795
0.111281
0.0422883
0.0452612
0.0467662
0.041822
0.0479442
0.0518259
0.0746283
0.143518
0.171312
0.137483
0.148825
0.138331
0.0214295
0.00667877
0.0227613
0.0177011
0.0021272
0.000280144
0.00214224
0.0021963
0.00255292
0.00191241
0.0026858
0.0128619
0.0115133
0.0158176
0.0114712
0.000499234
0.000422258
0.000350363
0.000255074
0.000194813
6.2921e-05
8.36567e-05
1.57468e-06
1.40579e-06
1.57451e-06
1.56059e-06
7.02823e-07
2.10406e-07
6.00751e-07
1.9964e-07
1.16291e-06
2.69821e-08
3.70145e-08
2.89874e-08
2.07428e-08
7.54254e-08
8.60675e-08
8.54109e-08
1.6598e-07
1.66149e-07
1.71616e-07
1.63138e-07
1.505e-07
1.81302e-07
1.76237e-07
1.06046e-06
1.03188e-06
1.40024e-06
1.21832e-06
3.22666e-06
3.49585e-06
6.63329e-06
2.18476e-06
4.35656e-06
2.57444e-06
6.30557e-06
5.52954e-06
7.02664e-06
2.2692e-06
5.78522e-06
8.50676e-06
7.73612e-06
8.48094e-06
1.16035e-05
1.13316e-05
1.08789e-05
1.16767e-05
2.13447e-05
2.32039e-05
1.92031e-05
2.15945e-05
2.12197e-05
2.2147e-05
2.13963e-05
2.1936e-05
3.31347e-05
4.00264e-05
4.19932e-05
3.93119e-05
0.000451757
0.000664642
0.000775717
0.000553985
1.88358
2.09591
1.5073
1.59649
1.79281
1.71377
1.32917
1.15194
1.81916
1.86378
1.88113
1.7188
1.57721
1.47829
0.354352
0.520701
0.449316
1.01315
0.962941
0.788914
0.346314
0.299623
0.243983
0.153079
0.16479
0.152837
0.151143
0.265147
0.176038
0.152789
0.106364
0.12439
0.0747568
0.0356336
0.0570456
0.0473718
0.0527307
0.0637554
0.118052
0.163985
0.170075
0.169931
0.15799
0.171588
0.13134
0.170906
0.172916
0.168047
0.0350879
0.0470691
0.0426898
0.0300464
0.0256422
0.0226323
0.0177715
0.0128115
0.00968993
0.004368
0.00489636
0.00364325
0.00111903
0.00215008
0.000413627
0.000197787
0.000169448
0.000123187
6.00327e-05
8.14211e-05
7.22765e-05
1.2583e-06
1.53901e-06
2.53128e-07
7.31614e-08
9.8311e-08
1.15737e-07
1.46367e-07
8.47213e-08
6.92701e-08
5.40161e-08
2.01835e-08
5.98201e-08
7.35679e-08
7.16636e-08
7.24318e-08
6.07658e-08
8.1991e-08
1.07037e-08
2.64822e-07
9.99727e-07
1.29416e-06
1.84345e-06
1.12139e-06
1.82424e-06
1.06854e-06
1.53806e-06
1.80257e-07
1.97814e-06
2.19146e-06
1.56633e-06
8.05983e-07
1.17466e-06
4.97017e-06
7.01449e-06
5.95668e-06
5.86409e-06
5.26333e-06
6.04245e-06
5.80394e-06
8.67951e-06
9.63723e-06
8.92332e-06
9.83832e-06
1.35872e-05
1.61854e-05
1.60751e-05
1.80929e-05
1.84895e-05
1.70679e-05
3.98248e-05
1.52488e-05
4.41683e-05
5.91979e-05
6.89204e-05
0.00010711
0.000122616
0.000330826
0.00098947
0.00108353
2.33546
2.90973
1.96458
1.5738
0.57129
1.50082
1.27551
1.54363
1.7838
1.87182
0.575285
0.595957
1.11418
1.0365
0.471465
0.47148
0.997369
1.14433
0.762623
0.79129
0.488977
0.377751
0.34149
0.233326
0.216412
0.444425
0.370634
0.620473
0.168123
0.191748
0.0781351
0.0390212
0.0464614
0.0541372
0.0545513
0.0676706
0.112353
0.147191
0.184734
0.192574
0.134517
0.0802883
0.166547
0.0621284
0.203101
0.157926
0.208723
0.159534
0.0760861
0.178222
0.0522257
0.155239
0.0302344
0.0103342
0.00511332
0.0059463
0.00487867
0.00481688
0.00398115
0.00141122
0.00327321
0.00359877
0.000530398
0.00339593
0.000308171
0.00219117
4.12436e-06
1.42788e-06
3.64943e-07
4.65041e-07
1.24032e-07
9.83551e-07
2.19736e-08
2.08395e-08
2.11982e-08
8.47546e-08
1.97074e-08
9.71699e-08
9.76545e-08
6.66922e-08
8.56035e-08
6.69416e-08
7.25073e-08
6.85355e-08
5.13297e-08
4.50553e-08
4.39608e-08
5.34947e-09
2.46918e-08
3.25841e-08
1.5077e-06
8.41121e-07
1.30066e-06
5.14529e-07
1.46339e-10
1.84775e-10
2.67809e-10
1.9954e-06
1.46457e-06
2.27454e-06
2.59961e-06
4.82531e-07
2.28211e-06
5.81009e-06
5.51068e-06
3.44351e-06
3.78678e-06
4.25124e-06
4.8149e-06
9.9738e-06
1.03369e-05
8.06588e-06
1.05273e-05
1.21646e-05
1.53386e-05
1.50385e-05
3.55069e-05
3.74447e-05
3.9882e-05
3.94666e-05
5.21759e-05
5.15641e-05
6.03422e-05
9.46081e-05
0.000114321
0.000134839
0.000162545
0.00122414
5.95523
13.8967
5.88052
14.6801
1.85767
2.45352
2.14253
2.01791
2.57095
0.840986
0.711923
1.21582
1.22591
0.962389
0.844659
0.622143
1.21007
1.24128
1.02409
1.00767
1.01355
0.447166
0.419588
0.584361
1.04373
1.77475
1.0895
0.915004
0.0514703
0.0344272
0.249484
0.229983
0.126535
0.100319
0.212037
0.320396
0.280907
0.294726
0.275976
0.262069
0.239637
0.210088
0.187215
0.149695
0.169102
0.200565
0.114942
0.211481
0.176456
0.243626
0.138484
0.213902
0.0328149
0.0204544
0.0149723
0.00231629
0.00538779
0.00551772
0.00385396
0.00199398
0.00417199
0.000766185
0.00346489
0.0011502
2.82458e-06
2.70026e-06
3.41915e-07
8.68075e-08
4.17885e-08
2.64052e-07
7.10213e-07
9.24056e-07
6.15439e-07
9.25452e-08
9.50732e-08
8.22647e-08
2.26733e-08
2.09249e-08
4.49085e-08
7.29522e-08
6.83597e-08
8.68045e-08
7.8458e-08
8.05178e-08
4.30519e-08
6.70862e-08
6.51698e-08
5.76546e-08
2.67968e-08
2.79495e-08
2.51159e-08
2.26422e-08
1.93626e-08
1.41176e-08
1.18774e-08
2.58093e-09
2.09212e-10
3.03997e-10
3.70091e-07
2.71493e-07
7.35488e-07
5.38441e-06
2.49616e-06
5.94292e-06
7.76353e-06
1.40216e-06
1.1297e-06
9.00896e-07
1.00514e-06
6.15826e-06
1.19812e-05
7.25865e-06
1.07785e-05
8.34312e-06
2.84858e-05
2.59601e-05
2.75945e-05
3.35926e-05
0.000281907
4.78555e-05
0.000439805
6.22375e-05
0.000621212
9.12282e-05
0.000917843
0.000728396
0.000836773
0.000937434
16.2324
24.3298
19.752
13.5323
5.50828
3.90834
3.67252
2.49454
0.337026
1.00631
3.9521
7.3381
1.04747
1.04492
0.707626
1.18169
1.3175
1.36215
1.0852
1.09685
0.448253
1.97096
4.03035
5.09072
6.13859
6.40112
5.8347
5.74843
3.01719
2.10525
1.94349
0.547714
0.542076
0.181582
0.413905
0.41978
0.145866
0.329659
0.291928
0.266481
0.257986
0.283617
0.195734
0.265567
0.211264