# vtk DataFile Version 3.0
vtk output
ASCII
DATASET POLYDATA
POINTS 24578 float
-151.53 81.83 75.23
-146.76 79.98 77.9
-147.26 82.51 76.57
-151.22 79.35 76.36
-146.3 77.32 78.47
-150.76 76.75 77.01
-146.01 74.82 79.56
-150.4 74.19 77.98
-145.43 72.07 79.86
-149.95 71.56 78.66
-145.02 69.6 80.58
-149.55 69.11 79.46
-144.64 67.21 81.53
-149.14 66.64 80.2
-144.27 64.77 82.34
-148.68 64.12 80.8
-144.06 62.18 83.1
-148.26 61.63 81.51
-143.83 59.57 83.96
-148.2 59.14 82.73
-143.54 56.98 84.63
-148.02 56.58 83.6
-143.3 54.28 84.95
-147.52 53.77 83.62
-142.71 51.53 84.98
-147.03 50.98 83.68
-142.34 49.05 85.71
-146.66 48.52 84.06
-142.24 46.57 86.6
-146.26 46.05 84.34
-145.97 43.63 84.94
-141.82 44.09 87.11
-141.56 41.44 87.04
-145.67 41.21 85.5
-140.98 38.76 87.5
-145.29 38.66 85.7
-140.75 36.16 87.85
-144.89 36.1 85.85
-144.62 33.53 86.3
-140.46 33.57 88.45
-140.13 30.94 88.56
-144.22 30.94 86.41
-143.81 28.2 86.49
-139.84 28.2 88.9
-143.44 25.45 86.68
-139.6 25.51 89.44
-143.18 22.67 87.12
-139.22 22.78 89.44
-142.9 19.88 87.51
-138.79 20.04 89.71
-142.6 17.15 87.83
-138.39 17.32 89.75
-137.91 14.61 89.73
-142.25 14.42 88.03
-141.99 11.68 88.46
-137.6 11.89 89.94
-141.61 8.95 88.57
-137.22 9.16 90.05
-141.13 6.27 88.48
-136.86 6.45 90.3
-140.68 3.58 88.47
-136.37 3.76 90.16
-140.25 0.89 88.51
-135.88 1.07 90.03
-139.71 -1.79 88.26
-135.64 -1.76 90.02
-135.64 -4.55 89.75
-140 -4.44 88.09
-135.69 -7.09 89
-140.34 -7.12 88.03
-135.79 -9.62 88.23
-140.37 -9.69 87.25
-135.84 -12.19 87.54
-140.43 -12.27 86.54
-135.99 -14.75 87
-140.5 -14.79 85.8
-136.21 -17.35 86.64
-140.62 -17.33 85.19
-136.42 -19.93 86.21
-140.85 -19.94 84.82
-136.49 -22.42 85.34
-140.79 -22.34 83.7
-136.45 -24.91 84.43
-140.78 -24.79 82.73
-136.55 -27.44 83.74
-140.84 -27.3 81.99
-136.57 -29.97 82.98
-140.97 -29.86 81.42
-136.73 -32.54 82.43
-141.02 -32.36 80.63
-136.76 -35.12 81.64
-141.09 -34.97 79.94
-141.32 -37.69 79.69
-136.83 -37.72 80.96
-141.45 -40.33 79.13
-136.9 -40.34 80.32
-137.11 -43 79.41
-141.48 -42.91 78.35
-141.57 -45.38 77.61
-137.04 -45.54 78.64
-141.59 -47.8 76.7
-137.03 -47.91 77.56
-141.86 -50.43 76.49
-137.15 -50.39 76.9
-141.9 -52.84 75.63
-137.27 -52.84 76.11
-141.91 -55.11 74.4
-137.53 -55.19 75.26
-137.48 -57.49 74.21
-141.9 -57.35 73.07
-142.03 -59.74 72.14
-137.7 -59.92 73.43
-142.25 -62.22 71.44
-137.97 -62.48 72.92
-142.57 -64.67 70.67
-138.15 -65.14 72.4
-142.87 -67.1 69.86
-138.34 -67.41 71.12
-143.16 -69.56 69.09
-138.58 -69.8 70.17
-143.42 -71.97 68.22
-138.72 -72 68.84
-143.42 -74.03 66.78
-138.71 -74.17 67.59
-143.52 -76.26 65.69
-138.9 -76.5 66.65
-143.64 -78.59 64.8
-139.03 -78.91 65.88
-143.64 -80.66 63.43
-139.36 -81.09 64.3
-142.41 80.53 78.87
-142.88 83.09 77.59
-141.83 77.87 79.86
-141.49 75.33 80.8
-140.97 72.61 81.19
-140.47 70.13 81.77
-140.01 67.69 82.47
-139.94 65.21 83.59
-139.84 62.72 84.64
-139.44 60.04 85.13
-139.12 57.42 85.86
-138.88 54.8 86.42
-138.56 52.14 86.78
-138.19 49.56 87.25
-137.83 46.99 87.76
-137.58 44.31 88.01
-137.31 41.63 88.23
-137.03 38.95 89.21
-136.57 36.22 89.77
-136.22 33.57 90.06
-135.88 30.91 90.36
-135.74 28.24 91.1
-135.47 25.56 91.56
-134.94 22.88 91.41
-134.47 20.19 91.43
-134.08 17.49 91.57
-133.61 14.8 91.52
-133.09 12.1 91.2
-132.71 9.37 91.23
-132.3 6.67 91.32
-131.94 3.96 91.53
-131.76 1.11 91.67
-131.5 -1.71 91.62
-131.31 -4.41 90.89
-131.1 -7.09 90.13
-131.35 -9.7 89.79
-131.55 -12.29 89.33
-131.63 -14.81 88.62
-131.74 -17.34 87.96
-131.85 -19.85 87.19
-132.06 -22.42 86.66
-132.19 -25.02 86.17
-132.25 -27.57 85.48
-132.26 -30.09 84.65
-132.44 -32.72 84.26
-132.56 -35.36 83.72
-132.63 -37.97 83.04
-132.75 -40.58 81.94
-132.83 -43.16 80.72
-132.77 -45.71 79.94
-132.75 -48.3 79.25
-132.77 -50.64 78.12
-132.8 -52.99 77
-132.95 -55.32 76.2
-133.13 -57.69 75.53
-133.33 -60.11 74.69
-133.5 -62.48 73.72
-133.64 -65.09 73
-133.72 -67.59 72.04
-133.86 -69.81 70.74
-134.01 -72.03 69.43
-134.18 -74.44 68.63
-134.35 -76.86 67.84
-134.77 -79.33 66.76
-135.07 -81.54 65.2
-138.04 81.11 79.93
-138.51 83.66 78.64
-137.48 78.45 80.95
-136.81 75.7 81.58
-136.53 73.2 82.68
-136.2 70.85 83.66
-136.01 68.35 84.53
-135.78 65.76 85.17
-135.49 63.19 85.82
-135.19 60.56 86.38
-134.98 57.99 87.45
-134.76 55.37 88.25
-134.53 52.77 88.88
-134 50.11 89.1
-133.65 47.3 89.03
-133.3 44.56 89.42
-133.29 41.92 90.17
-132.89 39.2 91
-132.5 36.43 91.58
-132.05 33.68 92.21
-131.7 30.98 92.36
-131.44 28.31 92.66
-131.04 25.67 93.02
-130.62 23.02 93.01
-130.15 20.36 93.11
-129.82 17.66 93.35
-129.27 14.97 93.05
-128.74 12.27 92.73
-128.4 9.55 92.87
-127.96 6.85 92.86
-127.84 4 93.22
-127.59 1.17 93.17
-127.27 -1.64 92.97
-127.25 -4.36 92.57
-127.15 -7.08 92.07
-127.17 -9.83 91.83
-127.29 -12.38 91.16
-127.29 -14.86 90.23
-127.44 -17.42 89.6
-127.57 -19.97 88.96
-127.76 -22.53 88.35
-127.82 -25.1 87.72
-127.85 -27.64 86.95
-127.95 -30.27 86.46
-128.2 -32.95 86.24
-128.25 -35.54 85.49
-128.5 -38.26 84.8
-128.59 -40.83 83.55
-128.62 -43.36 82.3
-128.5 -45.86 81.36
-128.57 -48.51 80.64
-128.51 -50.96 79.6
-128.63 -53.39 78.68
-128.82 -55.89 78.24
-129.15 -58.39 77.85
-129.06 -60.46 76.29
-128.99 -62.4 74.44
-128.98 -64.79 73.19
-129.01 -67.15 71.96
-128.97 -69.58 70.84
-129.28 -72.05 69.98
-129.48 -74.55 69.36
-130.01 -77.21 68.65
-130.42 -79.71 67.63
-130.79 -82.03 66.21
-133.82 81.84 81.46
-134.36 84.47 80.38
-133.19 79.09 82.22
-132.49 76.28 82.7
-131.95 73.65 83.71
-131.93 71.29 85
-131.87 68.9 86.17
-131.5 66.27 86.57
-131.13 63.64 86.94
-130.87 61.02 87.58
-130.68 58.45 88.47
-130.46 55.86 89.34
-130.18 53.24 90.02
-129.88 50.44 90.31
-129.64 47.69 90.79
-129.42 44.94 91.36
-129.23 42.2 92.03
-128.71 39.37 92.41
-128.45 36.65 93.48
-128.03 33.86 94.03
-127.47 31.03 94.24
-127.19 28.41 94.71
-126.88 25.78 95.12
-126.32 23.16 94.88
-125.8 20.53 94.74
-125.36 17.84 94.64
-124.86 15.16 94.43
-124.49 12.44 94.52
-124.2 9.71 94.8
-123.95 6.88 94.78
-123.68 4.05 94.73
-123.4 1.23 94.62
-123.18 -1.6 94.69
-123.37 -4.41 94.84
-123.31 -7.12 94.32
-123.16 -9.79 93.63
-122.95 -12.42 92.76
-123.09 -14.99 92.12
-123.27 -17.57 91.56
-123.4 -20.13 90.9
-123.5 -22.66 90.14
-123.53 -25.22 89.42
-123.57 -27.78 88.7
-123.68 -30.42 88.22
-123.74 -33.02 87.62
-123.94 -35.69 86.77
-124.14 -38.36 85.91
-124.27 -40.96 84.88
-124.51 -43.67 84.17
-124.44 -46.18 83.04
-124.36 -48.68 81.9
-124.32 -51.14 80.87
-124.34 -53.66 80.01
-124.65 -56.22 79.72
-124.85 -58.64 79.12
-124.76 -60.62 77.46
-124.57 -62.46 75.52
-124.49 -64.69 73.94
-124.51 -67.1 72.74
-124.57 -69.65 71.8
-124.65 -72.26 70.99
-125.14 -74.86 70.13
-125.57 -77.36 69.04
-126.01 -79.84 67.96
-126.39 -82.16 66.58
-129.58 82.52 82.46
-130.23 85.32 82
-128.9 79.77 83.09
-128.4 77.11 83.84
-127.98 74.41 84.96
-127.56 71.77 85.9
-127.33 69.24 86.57
-127.15 66.76 87.43
-126.86 64.14 88.01
-126.52 61.49 88.81
-126.36 58.96 89.84
-126.14 56.38 90.8
-125.97 53.53 91.15
-125.51 50.64 91.5
-125.42 47.93 92.31
-125.22 45.19 93.14
-125.05 42.45 93.81
-124.64 39.66 94.38
-124.31 36.88 95.2
-123.77 34.05 95.42
-123.26 31.23 95.69
-122.78 28.52 96.11
-122.44 25.87 96.38
-121.98 23.27 96.26
-121.42 20.65 96.06
-121.04 17.96 96.08
-120.68 15.29 96.36
-120.38 12.57 96.56
-120.17 9.75 96.72
-119.91 6.93 96.66
-119.55 4.12 96.37
-119.27 1.3 96.28
-119.07 -1.54 96.32
-119.25 -4.36 96.51
-119.22 -7.1 96.08
-119.04 -9.77 95.31
-119 -12.5 94.8
-118.91 -15.21 94.19
-119.08 -17.79 93.59
-119.2 -20.38 92.98
-119.3 -22.91 92.18
-119.31 -25.47 91.43
-119.31 -28 90.63
-119.33 -30.55 89.87
-119.45 -33.15 88.84
-119.6 -35.8 87.91
-119.83 -38.5 87.17
-120.05 -41.2 86.43
-120.26 -43.87 85.57
-120.32 -46.42 84.63
-120.24 -48.94 83.59
-120.24 -51.46 82.7
-120.29 -53.99 81.83
-120.1 -56.26 80.6
-120.22 -58.48 79.45
-120.33 -60.66 78.2
-120.24 -62.81 76.84
-120.26 -65.2 75.6
-120.18 -67.48 74.2
-120.23 -70.02 73.25
-120.52 -72.67 72.16
-120.81 -75.19 70.96
-121.18 -77.58 69.65
-121.52 -79.9 68.24
-121.92 -82.27 66.97
-125.25 83.17 83.41
-125.88 85.88 82.84
-124.6 80.45 83.94
-124.22 77.72 84.75
-123.94 75.09 85.93
-123.46 72.43 86.81
-122.93 69.71 87.46
-122.73 67.14 88.15
-122.59 64.64 89.06
-122.25 62 89.9
-121.95 59.4 90.9
-121.96 56.7 91.92
-121.73 53.8 92.2
-121.47 50.99 93.04
-121.27 48.22 94.07
-121.07 45.45 94.8
-120.88 42.69 95.58
-120.53 39.9 96.26
-120.06 37.06 96.59
-119.52 34.23 96.77
-119.19 31.45 97.53
-118.64 28.71 97.7
-118.07 25.97 97.81
-117.65 23.36 97.86
-117.2 20.75 97.82
-116.76 18.09 97.81
-116.45 15.42 98.16
-116.25 12.62 98.27
-115.94 9.82 98.09
-115.72 7.01 98.16
-115.43 4.19 98.08
-115.24 1.34 98.13
-115.02 -1.5 98.11
-115.03 -4.27 97.86
-115.05 -7.04 97.62
-115.01 -9.78 97.12
-114.91 -12.5 96.46
-114.83 -15.21 95.87
-114.79 -17.94 95.36
-114.95 -20.55 94.79
-115.09 -23.14 94.17
-115.09 -25.69 93.41
-115.09 -28.25 92.66
-115.19 -30.82 91.55
-115.34 -33.43 90.58
-115.56 -36.16 89.86
-115.65 -38.76 88.81
-115.73 -41.32 87.6
-115.89 -43.96 86.62
-115.94 -46.5 85.75
-115.97 -49.02 84.82
-116.06 -51.62 84.1
-116.16 -54.22 83.41
-116 -56.46 81.98
-115.78 -58.59 80.34
-115.73 -60.7 78.9
-115.82 -63.01 77.89
-115.91 -65.56 77.02
-115.85 -67.86 75.66
-116.07 -70.39 74.35
-116.45 -73.24 73.66
-116.73 -75.78 72.45
-116.87 -78.01 70.66
-117.13 -80.1 68.85
-117.46 -82.37 67.36
-120.93 83.58 83.84
-121.35 86.18 83.25
-120.43 80.92 84.76
-120.24 78.29 85.68
-119.85 75.73 86.84
-119.39 73.08 87.68
-118.97 70.39 88.56
-118.52 67.71 89.38
-118.27 65.1 89.93
-117.89 62.43 90.71
-117.77 59.68 91.68
-117.62 56.89 92.64
-117.53 54.11 93.38
-117.25 51.28 94.27
-116.99 48.44 95.07
-116.61 45.56 95.63
-116.37 42.76 96.18
-116.01 39.98 96.85
-115.62 37.17 97.41
-115.23 34.39 98.02
-114.97 31.62 98.96
-114.53 28.91 99.33
-113.9 26.15 99.26
-113.4 23.47 99.53
-113.04 20.85 99.72
-112.61 18.2 99.71
-112.34 15.45 99.77
-112.11 12.66 99.75
-111.7 9.9 99.43
-111.54 7.08 99.65
-111.31 4.26 99.65
-111.1 1.42 99.6
-110.91 -1.42 99.76
-110.84 -4.17 99.3
-110.76 -6.92 98.71
-110.8 -9.71 98.47
-110.76 -12.46 97.96
-110.67 -15.19 97.39
-110.65 -17.93 96.92
-110.56 -20.62 96.27
-110.66 -23.19 95.59
[...]
CELL_DATA 49152
SCALARS Temperature float 1
LOOKUP_TABLE default
2.35866e-06
2.17269e-06
5.32259e-06
1.48048e-06
1.36426e-06
1.03107e-06
2.18637e-06
2.0488e-06
2.01409e-06
6.05783e-06
5.61239e-06
5.12662e-06
4.78963e-06
3.62974e-06
7.45903e-07
9.48728e-07
1.04831e-06
3.73021e-06
5.23798e-06
5.72248e-06
8.31675e-06
2.23694e-05
1.76548e-05
7.87231e-06
7.03554e-06
2.59369e-05
2.50129e-05
4.4889e-05
4.65222e-05
4.33502e-05
6.37426e-05
2.98437e-05
1.41432e-05
0.000155775
3.11734e-05
6.9245e-05
4.70713e-05
5.77292e-05
0.00146927
0.000541252
0.000585063
0.00164945
0.000485242
0.00192141
0.00208281
0.00220901
0.0019132
0.00213329
0.00192451
0.00226873
0.00031607
0.000242841
0.000428086
0.00112949
0.00244377
0.00257038
0.000504515
0.00163322
0.00427474
0.021926
0.00346846
0.00446013
0.00574823
0.00520733
0.00581783
0.00501251
0.429711
0.362253
0.734509
0.809275
0.763263
0.834087
0.785834
0.834265
0.741456
0.723134
0.666103
0.706215
1.17297
1.21025
1.0206
1.0363
0.636431
0.77844
0.460628
0.910557
0.984578
1.06591
1.23732
1.1222
1.05995
2.9775
3.6368
4.63724
6.62144
6.43306
6.49792
7.75742
9.7406
11.7122
8.89878
14.295
248.729
29.138
276.337
198.844
236.981
19.0027
31.7447
52.959
52.259
59.8031
47.8515
54.8686
41.5076
219.338
45.3362
182.004
155.705
277.305
289.018
263.775
247.163
205.304
199.09
114.514
256.432
261.666
1.91765e-06
2.03548e-06
9.66543e-06
6.39523e-06
1.29274e-06
1.79085e-06
7.50853e-06
1.26566e-06
1.07012e-06
1.18747e-06
1.03396e-06
1.27768e-06
1.25406e-06
5.37711e-06
3.90254e-06
1.70833e-06
3.49739e-06
5.50155e-06
5.72094e-06
5.41373e-06
3.99027e-06
4.66933e-06
5.85967e-06
2.72419e-05
2.26042e-05
1.22064e-05
1.14245e-05
1.00998e-05
5.81052e-06
9.61794e-06
5.47195e-06
7.70153e-06
3.57378e-06
1.09491e-05
3.13879e-05
3.63644e-05
3.90282e-05
2.63493e-05
3.64595e-05
3.12358e-05
3.46109e-05
0.000131084
0.000229134
0.000211211
0.00269081
0.00213179
0.00123601
0.00132227
0.000340378
0.00139753
0.00170625
0.00140886
0.00291553
0.00264297
0.000693616
0.00381797
0.00373051
0.0038166
0.00482646
0.00108668
0.00352073
0.000965042
0.00356503
0.00319268
0.0570886
0.175828
0.0716671
0.362793
0.0810999
0.375174
0.151828
0.356467
0.386981
0.44872
0.573189
0.685993
0.856204
0.99172
1.05632
1.09179
0.999895
0.991169
0.774023
0.773985
0.978592
0.664007
0.909943
0.569526
0.676179
1.47817
11.4133
6.89164
21.0009
4.82339
24.6304
14.9065
18.2879
22.3716
30.0159
33.3007
38.6297
39.0585
41.5967
31.6639
38.0963
35.2807
20.5169
51.7101
55.4881
45.9239
58.5964
228.915
67.2333
206.393
273.442
208.711
207.93
277.632
279.999
276.751
276.116
147.329
190.762
81.2364
75.5623
199.802
261.181
257.482
1.52852e-06
1.59282e-06
6.14746e-06
6.09738e-06
1.06789e-05
1.27171e-05
7.34734e-06
1.92769e-06
1.11094e-06
1.25137e-06
1.262e-06
1.17206e-06
1.12854e-06
1.19804e-06
1.32802e-06
4.85356e-06
6.62734e-06
6.10475e-06
4.2878e-06
1.06876e-06
5.8528e-06
1.84981e-05
2.17362e-05
2.9395e-05
2.95439e-05
2.53281e-05
2.03266e-05
6.02608e-06
4.48735e-06
4.40046e-06
4.87885e-06
3.64899e-06
4.41566e-06
2.95262e-05
2.89935e-05
3.08745e-05
2.77254e-05
0.000112162
0.0001634
0.000102706
5.01692e-05
0.000129296
0.000119683
0.000182413
0.000344232
0.00168371
0.000350467
0.000259376
0.0002966
0.000334149
0.00356368
0.00297611
0.000826565
0.000753157
0.000610681
0.00064895
0.000765232
0.000632475
0.0007629
0.00083372
0.000812199
0.0036989
0.0146258
0.039714
0.0593324
0.119477
0.115063
0.133338
0.147617
0.162145
0.186296
0.165422
0.567342
0.408624
0.362231
0.456312
0.482868
0.55166
0.547558
0.645253
0.762657
0.906567
1.00757
1.03831
1.14493
0.53896
0.863424
0.888423
7.55417
1.30441
4.27548
7.87038
27.2274
24.2856
29.1459
28.0319
25.2276
26.0889
23.7555
24.1867
35.2177
40.6812
38.6063
46.5852
47.5416
52.6589
57.2788
62.0324
72.2947
51.3225
264.201
239.81
193.878
292.029
271.624
302.969
309.658
285.899
300.814
234.836
231.212
170.433
209.259
90.5679
214.277
195.652
262.681
231.609
1.77839e-06
1.77138e-06
5.55279e-06
4.08631e-06
9.18621e-06
8.13496e-06
6.46884e-06
6.27287e-06
4.56334e-06
2.86524e-06
3.97065e-06
1.50584e-06
4.23766e-06
5.36775e-06
6.86541e-06
7.16118e-06
7.24687e-06
6.76918e-06
5.99932e-06
9.16489e-06
6.4271e-06
6.00424e-06
5.79843e-06
5.34447e-06
4.57964e-06
5.19157e-06
3.19854e-06
1.07008e-05
1.13601e-05
9.56506e-06
8.48938e-06
9.91911e-06
2.11463e-05
8.4873e-06
8.11523e-06
3.1816e-05
3.67242e-05
3.1143e-05
0.000131832
0.000114631
2.70467e-05
3.34398e-05
0.00011436
0.00112497
0.00225718
0.000503376
0.000687667
0.000399575
0.000504128
0.000379829
0.000724372
0.000850847
0.000459354
0.000695469
0.000602205
0.000632609
0.000715425
0.00069888
0.000785658
0.00433914
0.00417559
0.00560911
0.00736562
0.0349804
0.00820417
0.138926
0.415233
0.164863
0.18831
0.125676
0.804658
0.370946
0.328054
0.839991
0.269698
0.607758
0.691779
0.666892
0.841729
0.617878
0.768872
0.849135
0.874939
0.839454
1.05441
0.993107
1.28645
1.88223
2.26743
2.24962
2.55172
3.14501
3.08555
23.8477
5.53091
32.6122
34.0186
31.2615
32.8832
13.6163
25.1492
28.1787
27.3579
28.0493
31.1063
36.0944
39.9169
24.0894
269.939
267.575
296.099
294.662
271.142
264.155
262.884
88.0446
249.428
97.159
101.167
95.6953
101.647
177.762
106.059
257.096
251.979
261.052
285.359
281.555
1.51164e-05
9.35831e-06
1.78689e-05
1.62941e-05
1.54066e-05
1.06109e-05
4.19331e-06
3.25274e-06
3.85567e-06
5.12123e-06
1.25466e-05
1.53389e-05
1.55546e-05
1.19818e-05
1.18453e-05
8.48888e-06
8.965e-06
7.05041e-06
7.49293e-06
4.82593e-06
4.69038e-06
3.20436e-06
4.87903e-06
5.68215e-06
3.12047e-06
3.11296e-06
2.70643e-06
2.3104e-06
7.35854e-06
1.15036e-05
1.02956e-05
1.27511e-05
1.18518e-05
2.33239e-05
3.07128e-05
2.36864e-05
1.86357e-05
3.01027e-06
3.61785e-06
1.33623e-06
1.82077e-06
1.7985e-06
5.96711e-06
0.000106206
0.00060749
0.000782827
0.000630447
0.000664192
0.00030511
0.000409112
0.000514267
0.000409061
0.000554878
0.00251026
0.0023455
0.00234719
0.00299292
0.00348383
0.00609847
0.00384501
0.00522152
0.00579303
0.0230411
0.0167244
0.00620798
0.00692936
0.0583585
0.0963094
0.706599
0.606164
0.133807
0.867874
0.708393
0.653959
0.604752
0.50043
3.98205
1.87564
6.41444
0.875868
0.745714
0.601365
0.564979
0.537781
0.669975
1.44989
1.85636
2.3206
3.15461
3.32451
3.96976
3.14895
3.6785
11.3313
10.2054
3.53487
16.9159
29.7541
28.6131
32.3552
30.7697
35.5259
36.1108
35.6685
38.5729
258.548
100.027
282.597
289.488
296.368
275.939
285.671
200.177
214.403
184.617
96.7682
100.341
93.2371
98.7313
82.6231
92.2766
227.166
212.412
260.327
238.452
289.261
287.7
274.121
2.36515e-05
2.2577e-05
2.20225e-05
2.05025e-05
1.82635e-05
1.6314e-05
1.08036e-05
7.11869e-06
1.02953e-05
1.11305e-05
1.24892e-05
1.31516e-05
1.3116e-05
1.40077e-05
1.38737e-05
9.77506e-06
9.92903e-06
8.88481e-06
9.15837e-06
9.83547e-06
9.21986e-06
7.98237e-06
6.89742e-06
6.46407e-06
3.2496e-06
2.21498e-06
1.56592e-06
1.38462e-06
1.09337e-05
9.62956e-06
9.85527e-06
1.29096e-05
1.59466e-05
2.48244e-05
2.6827e-05
3.72866e-06
6.30521e-06
5.2625e-06
4.37227e-06
1.49713e-06
1.07363e-05
1.24358e-05
1.4026e-05
0.000154596
0.000200258
0.00038661
0.00033795
0.000459471
0.00036036
0.000389746
0.000299577
0.00037537
0.000333467
0.000283962
0.00010068
0.000154361
0.000151575
0.000107456
0.00251481
0.00803332
0.00685944
0.0403529
0.0463611
0.0461891
0.00317579
0.00736698
0.000958053
0
0.00048059
0.722357
0.336803
0.125719
0.345432
0.398611
0.0993561
0.180455
0.160579
1.06528
2.02013
7.58843
8.23217
8.01973
8.65364
9.14078
10.6392
2.00057
9.48922
2.34041
13.1057
11.1841
21.525
4.7112
6.71464
3.26892
3.6459
125.977
165.276
170.428
5.61661
8.17106
5.7367
16.3034
20.1626
26.8589
218.384
210.864
258.22
245.44
273.505
269.086
278.613
208.419
232.968
91.8982
215.333
217.215
89.3702
207.265
76.1714
98.2211
81.5174
78.1238
226.404
221.431
272.165
270.034
258.942
288.79
2.8591e-05
2.76951e-05
2.4675e-05
2.42909e-05
1.46883e-05
1.30867e-05
1.02847e-05
1.03073e-05
1.30142e-05
1.28983e-05
1.30701e-05
9.39042e-06
8.73781e-06
8.48585e-06
9.35806e-06
1.28089e-05
1.23229e-05
1.23197e-05
1.14962e-05
1.13848e-05
9.00208e-06
9.93563e-06
8.23295e-06
3.23363e-06
3.18089e-06
3.06477e-06
3.06896e-06
3.60936e-06
3.69291e-06
3.96028e-06
4.08693e-06
4.32788e-06
4.48091e-06
4.70377e-06
6.9847e-06
6.79277e-06
7.1686e-06
6.79906e-06
7.25954e-06
7.46482e-06
3.8464e-06
1.06783e-05
8.90671e-05
0.000101322
3.96615e-05
6.04697e-05
0.00209563
0.00174674
0.00251325
0.00041504
0.000480539
0.000110568
0.000171093
0.0001162
0.000212928
0.000199779
4.25941e-05
4.36683e-05
0.000404682
0.000153697
0.000464153
0.000144193
0.000161337
0.0002282
9.53655e-05
5.45592e-05
0.0021105
0.00127563
0.00136849
0.156739
0.0115585
0.383672
0.0444736
0.451125
0.388844
0.548687
0.685682
1.43526
2.02035
2.07155
2.4167
2.22498
2.50287
1.80591
5.14072
17.7793
16.1002
16.8826
6.74675
9.7715
22.1403
17.8348
14.9237
10.5839
8.38635
6.50106
7.15422
4.35047
7.63128
4.65568
5.88201
7.74164
11.8486
158.099
237.173
245.836
255.2
258.287
208.221
218.706
122.119
84.484
87.2568
225.516
245.53
245.534
243.139
241.823
96.1663
176.44
243.261
76.6009
280.303
279.968
288.312
288.333
266.334
293.56
2.74417e-05
2.74399e-05
1.78235e-05
1.74654e-05
1.76448e-05
1.72116e-05
1.71133e-05
1.77019e-05
1.80423e-05
1.69982e-05
1.65005e-05
1.37674e-05
1.36674e-05
1.08985e-05
1.15999e-05
1.23797e-05
1.19159e-05
9.64593e-06
9.41882e-06
9.29011e-06
9.24307e-06
8.84995e-06
3.8064e-06
3.71608e-06
3.76035e-06
3.72356e-06
3.97685e-06
4.08167e-06
4.29297e-06
4.32136e-06
4.49081e-06
4.29475e-06
4.36356e-06
4.30635e-06
6.19543e-06
6.97104e-06
7.52132e-06
7.69615e-06
7.87862e-06
9.0466e-06
9.63125e-06
1.24901e-05
8.92389e-06
6.72827e-06
6.78063e-06
6.70534e-06
5.87626e-06
1.04419e-05
6.44255e-06
2.38039e-06
0.000193768
0.000113236
0.000448946
0.000122423
0.000220715
2.56315e-05
3.54249e-05
5.44242e-05
0.000121824
0.000231672
0.00016006
8.8132e-05
0.000257939
0.000814852
0.000874286
0.00521541
0.00187263
0.00239554
0.000602735
0.000710697
0.00583635
0.00970513
0.013971
0.0416805
0.0739319
0.1385
6.55957
0.261715
1.68864
2.54323
3.22903
2.89755
2.91354
3.06122
2.84022
2.51796
2.45609
2.47657
2.65597
3.09507
9.87257
13.2019
11.6107
14.6142
8.87078
10.3529
11.3631
10.1902
16.0605
15.4885
15.6836
11.9081
17.0837
197.338
195.875
207.986
215.779
229.176
66.1123
126.831
186.836
166.935
214.622
208.566
227.165
227.604
257.859
255.589
120.918
291.701
252.309
317.73
336.417
296.493
318.725
247.004
279.757
184.396
1.19183e-05
1.93033e-05
1.82874e-05
1.02946e-05
1.09809e-05
1.30976e-05
1.12383e-05
1.08963e-05
1.52908e-05
1.65799e-05
1.77458e-05
1.95069e-05
1.92062e-05
1.9132e-05
1.7854e-05
1.21205e-05
9.89922e-06
9.31151e-06
3.8229e-06
1.01239e-05
3.67786e-06
9.30009e-06
3.94658e-06
3.87267e-06
4.06342e-06
3.96676e-06
4.23398e-06
4.03172e-06
4.24614e-06
3.46414e-06
3.70073e-06
3.25822e-06
3.47004e-06
3.76742e-06
5.13712e-06
6.12367e-06
7.23885e-06
8.21706e-06
5.86552e-06
6.72507e-06
6.60477e-06
7.04992e-06
9.07404e-06
4.56585e-05
4.33868e-06
5.21789e-06
8.37311e-06
6.54661e-06
6.09402e-06
6.33087e-06
5.8035e-06
4.6113e-06
0.000356467
0.00019246
0.000240478
0.000229214
5.35093e-05
0.00015669
0.000439044
0.00202097
0.000163535
0.0010058
0.000402275
0.00194287
0.000516681
0.000518848
0.00182803
0.0017396
0.00151218
0.000610574
0.00449833
0.00538705
0.00806335
0.0172677
0.0207836
0.0248744
0.0221898
0.283786
8.88963
17.8898
17.3378
8.72266
10.2799
2.62189
2.80391
2.82143
2.63522
2.12015
2.28779
2.69348
13.4093
12.0212
7.42715
14.0159
15.3838
8.5619
9.36704
10.4673
12.3509
17.2613
11.9013
21.1351
75.4014
30.1131
221.785
201.448
239.995
95.0649
190.081
204.853
258.439
255.756
246.098
246.813
243.63
243.128
268.11
268.463
235.98
227.309
236.446
82.7832
242.148
249.676
232.023
223.604
225.343
241.517
2.56125e-05
2.76336e-05
2.98239e-05
2.74646e-05
2.40266e-05
2.22385e-05
2.12768e-05
2.1196e-05
2.13944e-05
1.87014e-05
1.71982e-05
1.20988e-05
1.11451e-05
6.33855e-06
6.07577e-06
6.60565e-06
5.88995e-06
5.23609e-06
4.26418e-06
6.03571e-06
2.88935e-06
6.44931e-06
3.98663e-06
3.28329e-06
3.82428e-06
4.25553e-06
3.90768e-06
4.02864e-06
4.04503e-06
4.3662e-06
4.34228e-06
4.32583e-06
4.43686e-06
4.71792e-06
7.33819e-06
8.62744e-06
9.1812e-06
1.06322e-05
1.14887e-05
1.39429e-05
1.49697e-05
1.92155e-05
3.86453e-05
3.57118e-05
3.87565e-05
2.6894e-05
7.72515e-06
7.33664e-06
6.71172e-06
9.8464e-06
9.30303e-06
8.94655e-06
0.000155931
0.000149564
0.000150449
2.20246e-05
2.78875e-05
2.85354e-05
5.23264e-05
0.000135529
0.00255117
0.00349048
0.00457806
0.00439993
0.00104311
0.00098514
0.0021249
0.00186087
0.00193582
0.000879741
0.0041604
0.0067854
0.00791302
0.0128847
0.00625127
0.00811665
0.0985153
0.407251
0.430051
1.41177
1.08893
13.791
15.7713
16.5503
2.99007
3.1655
4.88935
2.50061
16.1083
13.6085
14.1286
18.7803
19.8328
13.2564
20.6932
22.0099
23.1106
23.7862
27.7103
25.2318
31.8476
16.4167
32.3095
35.44
183.135
191.72
59.4921
187.486
212.677
208.199
225.151
228.649
204.611
203.091
224.777
223.623
232.451
234.279
214.925
211.827
72.8549
93.5174
98.1014
106.815
188.157
174.652
262.283
261.227
3.83213e-05
3.7034e-05
2.70316e-05
3.19726e-05
2.45792e-05
2.43042e-05
2.21328e-05
2.0698e-05
1.88644e-05
1.69319e-05
1.74414e-05
1.2311e-05
5.75407e-06
7.63691e-06
6.99096e-06
6.46313e-06
6.06086e-06
6.53819e-06
6.61954e-06
7.79223e-06
6.6934e-06
6.21151e-06
3.82602e-06
3.89666e-06
4.48763e-06
3.96587e-06
4.05179e-06
4.25681e-06
3.99942e-06
4.5592e-06
5.20066e-06
4.8433e-06
5.2107e-06
5.96877e-06
1.05974e-05
1.26671e-05
1.19807e-05
1.65572e-05
1.9093e-05
2.26789e-05
3.05935e-05
3.46818e-05
2.85462e-05
3.01974e-05
2.74903e-05
9.72268e-06
9.22132e-06
3.82168e-05
4.01419e-05
3.94798e-05
8.02835e-05
0.000104141
9.34814e-05
1.42724e-05
1.46012e-05
1.15071e-05
1.37192e-05
9.71309e-06
2.57429e-05
1.07228e-05
0.000245191
3.46751e-05
0.000801527
0.000103602
0.000110373
0.00025483
0.000359999
0.00574101
0.00623389
0.00652829
0.00730734
0.0068152
0.00636956
0.00474633
0.0237691
0.0721446
0.123529
0.146533
0.144851
0.0587017
0.160883
0.168806
0.304545
15.0428
15.1125
16.6409
15.7998
15.105
17.455
16.988
17.3376
17.6101
18.9597
20.4404
22.2648
24.262
29.6514
20.7245
26.5727
21.8396
127.681
119.808
168.999
156.961
187.122
194.016
168.823
170.554
201.325
201.19
194.022
194.274
216.586
216.929
218.903
219.386
215.061
215.117
208.307
209.266
84.8984
241.343
193.248
130.846
253.968
253.81
278.512
279.449
2.37802e-05
5.22108e-05
1.94166e-05
2.07182e-05
2.17475e-05
2.02895e-05
1.91916e-05
1.97515e-05
2.15867e-05
2.2641e-05
2.23521e-05
2.04849e-05
2.25981e-05
3.29508e-05
6.94238e-06
1.23834e-05
1.01776e-05
2.52257e-05
2.39873e-05
1.95889e-05
6.65472e-06
1.87493e-05
1.52122e-05
5.85181e-06
6.17511e-06
4.78999e-06
4.71599e-06
4.91993e-06
3.47178e-06
4.81904e-06
5.54749e-06
5.88044e-06
6.15163e-06
9.01589e-06
1.24243e-05
1.48591e-05
1.89053e-05
2.46692e-05
2.7282e-05
3.35995e-05
3.42273e-05
3.36976e-05
3.13732e-05
3.36942e-05
2.53376e-05
3.3242e-05
3.3619e-05
4.12962e-05
2.45774e-05
2.1776e-05
1.98283e-05
1.45205e-05
1.26043e-05
1.06558e-05
8.38094e-06
6.03065e-06
6.9861e-06
5.12486e-06
8.40675e-06
5.00471e-06
7.48454e-06
4.53128e-06
1.6095e-05
7.07025e-05
8.16544e-05
9.34648e-05
0.00461561
0.000568944
0.000448688
0.00560397
0.00667758
0.0143021
0.0209566
0.0248435
0.0275935
0.069284
0.695782
0.839871
0.476559
0.121017
0.126547
0.160887
0.161427
0.164798
8.23976
8.57867
1.14452
13.8163
14.7181
17.2398
19.0424
14.4082
18.0463
12.4198
14.6047
3.43566
166.021
166.605
152.081
146.586
157.38
165.63
196.25
193.643
192.289
191.478
197.293
197.119
219.832
220.129
210.593
210.871
224.61
225.176
226.079
226.433
234.948
234.218
243.911
242.715
252.95
251.701
196.078
262.625
276.106
276.798
299.429
298.974
5.82766e-05
0.000144863
2.34005e-05
3.93413e-05
1.18008e-05
3.73664e-05
3.21944e-05
2.19884e-05
2.12646e-05
2.23017e-05
1.05925e-05
1.27342e-05
2.65588e-05
2.58207e-05
1.17631e-05
1.17917e-05
2.49564e-05
2.86992e-05
1.92625e-05
4.88555e-05
3.06123e-05
2.38626e-05
2.16129e-05
1.58745e-05
6.88458e-06
1.77444e-05
1.77597e-05
2.46671e-05
1.94165e-05
1.86404e-05
2.6799e-05
1.04743e-05
1.02057e-05
1.69366e-05
1.77015e-05
2.46494e-05
2.7344e-05
3.0063e-05
3.72774e-05
3.79889e-05
2.61366e-05
1.70769e-05
3.23766e-05
2.42491e-05
3.94035e-05
6.08138e-05
7.85836e-05
6.97135e-05
3.39928e-05
7.96064e-05
2.41198e-05
7.47964e-05
1.40876e-05
4.93948e-06
2.48477e-06
2.7177e-06
2.34314e-06
4.07248e-06
5.26654e-06
3.90863e-06
5.21848e-06
1.74912e-05
4.68713e-05
5.88357e-05
5.98697e-05
6.23411e-05
0.00327707
0.00295471
0.00322266
0.00296264
0.00570383
0.00714146
0.0100367
0.00937743
0.0107047
0.012296
0.160301
0.582136
0.206604
0.154744
0.192745
0.141654
0.163396
6.78546
0.0828017
0.07542
2.1297
0.554065
3.75678
4.94405
112.504
101.362
148.941
144.554
180.902
176.028
144.399
160.122
96.2757
117.03
187.659
174.472
207.614
209.266
207.392
206.721
207.615
207.677
210.174
211.945
216.819
215.709
228.574
228.919
236.928
236.744
244.444
244.75
250.615
250.423
257.827
257.622
244.468
243.645
274.116
273.611
287.937
287.931
0.000209727
0.000299485
0.000182071
0.000286734
0.000166696
0.000179804
2.59964e-05
2.65817e-05
3.04155e-05
1.9671e-05
1.69814e-05
3.01366e-05
3.04362e-05
2.40708e-05
2.09505e-05
1.52064e-05
3.02372e-05
8.7667e-05
6.54528e-05
6.62055e-05
6.33584e-05
2.93997e-05
2.75806e-05
3.03618e-05
5.31046e-05
0.000119084
3.45651e-05
2.34935e-05
2.04313e-05
1.39494e-05
8.38463e-05
7.7415e-05
3.82784e-05
3.20409e-05
5.20017e-05
6.59581e-05
5.64755e-05
5.84613e-05
5.42701e-05
5.28706e-05
7.52045e-05
5.6831e-05
8.26156e-05
6.85092e-05
7.62842e-05
9.31831e-05
6.748e-05
0.000101499
8.67207e-05
0.000120136
7.87266e-05
0.000110757
1.3857e-05
8.77991e-06
6.37458e-06
3.97767e-06
3.48079e-06
1.04222e-05
1.41374e-05
1.58851e-05
3.26948e-05
3.49571e-05
4.15176e-05
2.09592e-05
3.37471e-05
2.73062e-05
0.00261866
0.0039275
0.000478475
0.00311596
0.00488889
0.00515227
0.00425049
0.0100145
0.0639078
0.0555507
0.115927
0.074034
0.093601
0.107643
0.133901
0.217398
0.210084
11.34
7.5946
12.4865
13.8491
11.6597
189.985
182.688
211.062
211.398
189.51
195.623
147.733
166.28
130.696
110.81
181.492
173.262
200.588
204.761
183.662
185.254
224.937
222.412
216.715
216.836
199.668
202.029
236.194
235.078
241.569
241.109
253.532
253.233
255.401
255.582
253.584
253.761
250.55
250.725
239.838
239.644
259.625
259.582
260.682
260.741
0.00035915
0.000959095
0.000742914
0.000478049
0.000182065
0.000271296
0.000161367
8.10674e-05
1.40535e-05
4.20561e-05
4.77125e-05
0.000198924
2.78657e-05
2.77231e-05
4.04011e-05
9.8878e-05
0.000103328
0.000103259
7.79871e-05
7.43535e-05
3.03961e-05
0.000149085
8.51405e-05
0.000483706
0.000381572
0.000578341
0.000590258
0.00053897
0.00268425
0.00154118
0.000354651
0.000234521
0.000127353
5.00607e-05
8.29174e-05
8.13182e-05
4.35134e-05
6.53137e-05
7.14684e-05
0.000101922
0.000104148
0.000124995
9.51473e-05
0.000126817
0.000104882
0.000128219
0.000113415
0.000123262
0.00013222
0.000136403
0.000122075
0.000145175
1.40844e-06
0
3.73462e-06
8.30765e-06
8.43154e-06
5.70764e-06
9.23061e-06
7.74171e-06
8.25631e-06
8.03647e-06
9.52314e-06
0
9.69471e-07
0.000212959
3.03636e-05
0.000382117
0.000354883
0.000376414
0.0013691
0.00445129
0.00471405
0.049291
0.0886087
0.055919
1.62799
0.208057
0.243541
0.183246
0.191622
0.153502
0.211522
0.152104
2.83429
2.89197
4.37972
14.4459
8.33125
163.81
177.725
174.735
172.071
164.954
36.3594
28.4462
170.867
169.785
198.039
196.125
92.659
122.288
204.774
200.37
249.689
248.947
221.546
221.638
228.447
226.302
246.354
248.2
250.36
249.834
255.072
255.227
254.072
254.078
251.077
251.159
243.218
243.595
255.993
255.868
256.187
256.324
251.711
251.739
0.0028705
0.00967154
0.0140924
0.00971792
0.000931249
0.000281515
0.000324862
0.00028651
0.000771293
0.0022336
0.00152318
0.00204958
0
0
0.000452752
0.000140513
0.000158083
0.000128506
8.74471e-05
0.000146629
0.000303081
0.000396706
0.000451638
0.000528603
0.000430284
0.000677614
0.000689112
0.0007508
0.000604822
0.00067813
0.000183329
0.000167289
0.000144732
8.15635e-05
7.87772e-05
0.000135029
0.000102445
7.62475e-05
0.000113417
0.000142595
0.000136221
0.000157425
0.000138517
0.000168156
0.000137861
0.000169875
0.000151278
0.000161271