# vtk DataFile Version 3.0
vtk output
ASCII
DATASET POLYDATA
POINTS 24578 float
-151.53 81.83 75.23
-146.76 79.98 77.9
-147.26 82.51 76.57
-151.22 79.35 76.36
-146.3 77.32 78.47
-150.76 76.75 77.01
-146.01 74.82 79.56
-150.4 74.19 77.98
-145.43 72.07 79.86
-149.95 71.56 78.66
-145.02 69.6 80.58
-149.55 69.11 79.46
-144.64 67.21 81.53
-149.14 66.64 80.2
-144.27 64.77 82.34
-148.68 64.12 80.8
-144.06 62.18 83.1
-148.26 61.63 81.51
-143.83 59.57 83.96
-148.2 59.14 82.73
-143.54 56.98 84.63
-148.02 56.58 83.6
-143.3 54.28 84.95
-147.52 53.77 83.62
-142.71 51.53 84.98
-147.03 50.98 83.68
-142.34 49.05 85.71
-146.66 48.52 84.06
-142.24 46.57 86.6
-146.26 46.05 84.34
-145.97 43.63 84.94
-141.82 44.09 87.11
-141.56 41.44 87.04
-145.67 41.21 85.5
-140.98 38.76 87.5
-145.29 38.66 85.7
-140.75 36.16 87.85
-144.89 36.1 85.85
-144.62 33.53 86.3
-140.46 33.57 88.45
-140.13 30.94 88.56
-144.22 30.94 86.41
-143.81 28.2 86.49
-139.84 28.2 88.9
-143.44 25.45 86.68
-139.6 25.51 89.44
-143.18 22.67 87.12
-139.22 22.78 89.44
-142.9 19.88 87.51
-138.79 20.04 89.71
-142.6 17.15 87.83
-138.39 17.32 89.75
-137.91 14.61 89.73
-142.25 14.42 88.03
-141.99 11.68 88.46
-137.6 11.89 89.94
-141.61 8.95 88.57
-137.22 9.16 90.05
-141.13 6.27 88.48
-136.86 6.45 90.3
-140.68 3.58 88.47
-136.37 3.76 90.16
-140.25 0.89 88.51
-135.88 1.07 90.03
-139.71 -1.79 88.26
-135.64 -1.76 90.02
-135.64 -4.55 89.75
-140 -4.44 88.09
-135.69 -7.09 89
-140.34 -7.12 88.03
-135.79 -9.62 88.23
-140.37 -9.69 87.25
-135.84 -12.19 87.54
-140.43 -12.27 86.54
-135.99 -14.75 87
-140.5 -14.79 85.8
-136.21 -17.35 86.64
-140.62 -17.33 85.19
-136.42 -19.93 86.21
-140.85 -19.94 84.82
-136.49 -22.42 85.34
-140.79 -22.34 83.7
-136.45 -24.91 84.43
-140.78 -24.79 82.73
-136.55 -27.44 83.74
-140.84 -27.3 81.99
-136.57 -29.97 82.98
-140.97 -29.86 81.42
-136.73 -32.54 82.43
-141.02 -32.36 80.63
-136.76 -35.12 81.64
-141.09 -34.97 79.94
-141.32 -37.69 79.69
-136.83 -37.72 80.96
-141.45 -40.33 79.13
-136.9 -40.34 80.32
-137.11 -43 79.41
-141.48 -42.91 78.35
-141.57 -45.38 77.61
-137.04 -45.54 78.64
-141.59 -47.8 76.7
-137.03 -47.91 77.56
-141.86 -50.43 76.49
-137.15 -50.39 76.9
-141.9 -52.84 75.63
-137.27 -52.84 76.11
-141.91 -55.11 74.4
-137.53 -55.19 75.26
-137.48 -57.49 74.21
-141.9 -57.35 73.07
-142.03 -59.74 72.14
-137.7 -59.92 73.43
-142.25 -62.22 71.44
-137.97 -62.48 72.92
-142.57 -64.67 70.67
-138.15 -65.14 72.4
-142.87 -67.1 69.86
-138.34 -67.41 71.12
-143.16 -69.56 69.09
-138.58 -69.8 70.17
-143.42 -71.97 68.22
-138.72 -72 68.84
-143.42 -74.03 66.78
-138.71 -74.17 67.59
-143.52 -76.26 65.69
-138.9 -76.5 66.65
-143.64 -78.59 64.8
-139.03 -78.91 65.88
-143.64 -80.66 63.43
-139.36 -81.09 64.3
-142.41 80.53 78.87
-142.88 83.09 77.59
-141.83 77.87 79.86
-141.49 75.33 80.8
-140.97 72.61 81.19
-140.47 70.13 81.77
-140.01 67.69 82.47
-139.94 65.21 83.59
-139.84 62.72 84.64
-139.44 60.04 85.13
-139.12 57.42 85.86
-138.88 54.8 86.42
-138.56 52.14 86.78
-138.19 49.56 87.25
-137.83 46.99 87.76
-137.58 44.31 88.01
-137.31 41.63 88.23
-137.03 38.95 89.21
-136.57 36.22 89.77
-136.22 33.57 90.06
-135.88 30.91 90.36
-135.74 28.24 91.1
-135.47 25.56 91.56
-134.94 22.88 91.41
-134.47 20.19 91.43
-134.08 17.49 91.57
-133.61 14.8 91.52
-133.09 12.1 91.2
-132.71 9.37 91.23
-132.3 6.67 91.32
-131.94 3.96 91.53
-131.76 1.11 91.67
-131.5 -1.71 91.62
-131.31 -4.41 90.89
-131.1 -7.09 90.13
-131.35 -9.7 89.79
-131.55 -12.29 89.33
-131.63 -14.81 88.62
-131.74 -17.34 87.96
-131.85 -19.85 87.19
-132.06 -22.42 86.66
-132.19 -25.02 86.17
-132.25 -27.57 85.48
-132.26 -30.09 84.65
-132.44 -32.72 84.26
-132.56 -35.36 83.72
-132.63 -37.97 83.04
-132.75 -40.58 81.94
-132.83 -43.16 80.72
-132.77 -45.71 79.94
-132.75 -48.3 79.25
-132.77 -50.64 78.12
-132.8 -52.99 77
-132.95 -55.32 76.2
-133.13 -57.69 75.53
-133.33 -60.11 74.69
-133.5 -62.48 73.72
-133.64 -65.09 73
-133.72 -67.59 72.04
-133.86 -69.81 70.74
-134.01 -72.03 69.43
-134.18 -74.44 68.63
-134.35 -76.86 67.84
-134.77 -79.33 66.76
-135.07 -81.54 65.2
-138.04 81.11 79.93
-138.51 83.66 78.64
-137.48 78.45 80.95
-136.81 75.7 81.58
-136.53 73.2 82.68
-136.2 70.85 83.66
-136.01 68.35 84.53
-135.78 65.76 85.17
-135.49 63.19 85.82
-135.19 60.56 86.38
-134.98 57.99 87.45
-134.76 55.37 88.25
-134.53 52.77 88.88
-134 50.11 89.1
-133.65 47.3 89.03
-133.3 44.56 89.42
-133.29 41.92 90.17
-132.89 39.2 91
-132.5 36.43 91.58
-132.05 33.68 92.21
-131.7 30.98 92.36
-131.44 28.31 92.66
-131.04 25.67 93.02
-130.62 23.02 93.01
-130.15 20.36 93.11
-129.82 17.66 93.35
-129.27 14.97 93.05
-128.74 12.27 92.73
-128.4 9.55 92.87
-127.96 6.85 92.86
-127.84 4 93.22
-127.59 1.17 93.17
-127.27 -1.64 92.97
-127.25 -4.36 92.57
-127.15 -7.08 92.07
-127.17 -9.83 91.83
-127.29 -12.38 91.16
-127.29 -14.86 90.23
-127.44 -17.42 89.6
-127.57 -19.97 88.96
-127.76 -22.53 88.35
-127.82 -25.1 87.72
-127.85 -27.64 86.95
-127.95 -30.27 86.46
-128.2 -32.95 86.24
-128.25 -35.54 85.49
-128.5 -38.26 84.8
-128.59 -40.83 83.55
-128.62 -43.36 82.3
-128.5 -45.86 81.36
-128.57 -48.51 80.64
-128.51 -50.96 79.6
-128.63 -53.39 78.68
-128.82 -55.89 78.24
-129.15 -58.39 77.85
-129.06 -60.46 76.29
-128.99 -62.4 74.44
-128.98 -64.79 73.19
-129.01 -67.15 71.96
-128.97 -69.58 70.84
-129.28 -72.05 69.98
-129.48 -74.55 69.36
-130.01 -77.21 68.65
-130.42 -79.71 67.63
-130.79 -82.03 66.21
-133.82 81.84 81.46
-134.36 84.47 80.38
-133.19 79.09 82.22
-132.49 76.28 82.7
-131.95 73.65 83.71
-131.93 71.29 85
-131.87 68.9 86.17
-131.5 66.27 86.57
-131.13 63.64 86.94
-130.87 61.02 87.58
-130.68 58.45 88.47
-130.46 55.86 89.34
-130.18 53.24 90.02
-129.88 50.44 90.31
-129.64 47.69 90.79
-129.42 44.94 91.36
-129.23 42.2 92.03
-128.71 39.37 92.41
-128.45 36.65 93.48
-128.03 33.86 94.03
-127.47 31.03 94.24
-127.19 28.41 94.71
-126.88 25.78 95.12
-126.32 23.16 94.88
-125.8 20.53 94.74
-125.36 17.84 94.64
-124.86 15.16 94.43
-124.49 12.44 94.52
-124.2 9.71 94.8
-123.95 6.88 94.78
-123.68 4.05 94.73
-123.4 1.23 94.62
-123.18 -1.6 94.69
-123.37 -4.41 94.84
-123.31 -7.12 94.32
-123.16 -9.79 93.63
-122.95 -12.42 92.76
-123.09 -14.99 92.12
-123.27 -17.57 91.56
-123.4 -20.13 90.9
-123.5 -22.66 90.14
-123.53 -25.22 89.42
-123.57 -27.78 88.7
-123.68 -30.42 88.22
-123.74 -33.02 87.62
-123.94 -35.69 86.77
-124.14 -38.36 85.91
-124.27 -40.96 84.88
-124.51 -43.67 84.17
-124.44 -46.18 83.04
-124.36 -48.68 81.9
-124.32 -51.14 80.87
-124.34 -53.66 80.01
-124.65 -56.22 79.72
-124.85 -58.64 79.12
-124.76 -60.62 77.46
-124.57 -62.46 75.52
-124.49 -64.69 73.94
-124.51 -67.1 72.74
-124.57 -69.65 71.8
-124.65 -72.26 70.99
-125.14 -74.86 70.13
-125.57 -77.36 69.04
-126.01 -79.84 67.96
-126.39 -82.16 66.58
-129.58 82.52 82.46
-130.23 85.32 82
-128.9 79.77 83.09
-128.4 77.11 83.84
-127.98 74.41 84.96
-127.56 71.77 85.9
-127.33 69.24 86.57
-127.15 66.76 87.43
-126.86 64.14 88.01
-126.52 61.49 88.81
-126.36 58.96 89.84
-126.14 56.38 90.8
-125.97 53.53 91.15
-125.51 50.64 91.5
-125.42 47.93 92.31
-125.22 45.19 93.14
-125.05 42.45 93.81
-124.64 39.66 94.38
-124.31 36.88 95.2
-123.77 34.05 95.42
-123.26 31.23 95.69
-122.78 28.52 96.11
-122.44 25.87 96.38
-121.98 23.27 96.26
-121.42 20.65 96.06
-121.04 17.96 96.08
-120.68 15.29 96.36
-120.38 12.57 96.56
-120.17 9.75 96.72
-119.91 6.93 96.66
-119.55 4.12 96.37
-119.27 1.3 96.28
-119.07 -1.54 96.32
-119.25 -4.36 96.51
-119.22 -7.1 96.08
-119.04 -9.77 95.31
-119 -12.5 94.8
-118.91 -15.21 94.19
-119.08 -17.79 93.59
-119.2 -20.38 92.98
-119.3 -22.91 92.18
-119.31 -25.47 91.43
-119.31 -28 90.63
-119.33 -30.55 89.87
-119.45 -33.15 88.84
-119.6 -35.8 87.91
-119.83 -38.5 87.17
-120.05 -41.2 86.43
-120.26 -43.87 85.57
-120.32 -46.42 84.63
-120.24 -48.94 83.59
-120.24 -51.46 82.7
-120.29 -53.99 81.83
-120.1 -56.26 80.6
-120.22 -58.48 79.45
-120.33 -60.66 78.2
-120.24 -62.81 76.84
-120.26 -65.2 75.6
-120.18 -67.48 74.2
-120.23 -70.02 73.25
-120.52 -72.67 72.16
-120.81 -75.19 70.96
-121.18 -77.58 69.65
-121.52 -79.9 68.24
-121.92 -82.27 66.97
-125.25 83.17 83.41
-125.88 85.88 82.84
-124.6 80.45 83.94
-124.22 77.72 84.75
-123.94 75.09 85.93
-123.46 72.43 86.81
-122.93 69.71 87.46
-122.73 67.14 88.15
-122.59 64.64 89.06
-122.25 62 89.9
-121.95 59.4 90.9
-121.96 56.7 91.92
-121.73 53.8 92.2
-121.47 50.99 93.04
-121.27 48.22 94.07
-121.07 45.45 94.8
-120.88 42.69 95.58
-120.53 39.9 96.26
-120.06 37.06 96.59
-119.52 34.23 96.77
-119.19 31.45 97.53
-118.64 28.71 97.7
-118.07 25.97 97.81
-117.65 23.36 97.86
-117.2 20.75 97.82
-116.76 18.09 97.81
-116.45 15.42 98.16
-116.25 12.62 98.27
-115.94 9.82 98.09
-115.72 7.01 98.16
-115.43 4.19 98.08
-115.24 1.34 98.13
-115.02 -1.5 98.11
-115.03 -4.27 97.86
-115.05 -7.04 97.62
-115.01 -9.78 97.12
-114.91 -12.5 96.46
-114.83 -15.21 95.87
-114.79 -17.94 95.36
-114.95 -20.55 94.79
-115.09 -23.14 94.17
-115.09 -25.69 93.41
-115.09 -28.25 92.66
-115.19 -30.82 91.55
-115.34 -33.43 90.58
-115.56 -36.16 89.86
-115.65 -38.76 88.81
-115.73 -41.32 87.6
-115.89 -43.96 86.62
-115.94 -46.5 85.75
-115.97 -49.02 84.82
-116.06 -51.62 84.1
-116.16 -54.22 83.41
-116 -56.46 81.98
-115.78 -58.59 80.34
-115.73 -60.7 78.9
-115.82 -63.01 77.89
-115.91 -65.56 77.02
-115.85 -67.86 75.66
-116.07 -70.39 74.35
-116.45 -73.24 73.66
-116.73 -75.78 72.45
-116.87 -78.01 70.66
-117.13 -80.1 68.85
-117.46 -82.37 67.36
-120.93 83.58 83.84
-121.35 86.18 83.25
-120.43 80.92 84.76
-120.24 78.29 85.68
-119.85 75.73 86.84
-119.39 73.08 87.68
-118.97 70.39 88.56
-118.52 67.71 89.38
-118.27 65.1 89.93
-117.89 62.43 90.71
-117.77 59.68 91.68
-117.62 56.89 92.64
-117.53 54.11 93.38
-117.25 51.28 94.27
-116.99 48.44 95.07
-116.61 45.56 95.63
-116.37 42.76 96.18
-116.01 39.98 96.85
-115.62 37.17 97.41
-115.23 34.39 98.02
-114.97 31.62 98.96
-114.53 28.91 99.33
-113.9 26.15 99.26
-113.4 23.47 99.53
-113.04 20.85 99.72
-112.61 18.2 99.71
-112.34 15.45 99.77
-112.11 12.66 99.75
-111.7 9.9 99.43
-111.54 7.08 99.65
-111.31 4.26 99.65
-111.1 1.42 99.6
-110.91 -1.42 99.76
-110.84 -4.17 99.3
-110.76 -6.92 98.71
-110.8 -9.71 98.47
-110.76 -12.46 97.96
-110.67 -15.19 97.39
-110.65 -17.93 96.92
-110.56 -20.62 96.27
-110.66 -23.19 95.59
[...]
CELL_DATA 49152
SCALARS Temperature float 1
LOOKUP_TABLE default
0.0488531
0.0459493
0.202457
0.10312
0.0764692
0.150071
0.264757
0.232595
0.228827
0.249455
0.225961
0.258087
0.207644
0.152919
0.169199
0.1828
0.1916
0.163387
0.358164
0.391601
0.996358
1.21909
0.841793
0.160047
0.267438
0.488839
0.501835
0.942105
0.947127
0.967924
2.0965
0.750651
1.28539
7.55977
3.10251
12.7457
6.13332
13.0209
22.7365
23.3664
25.0672
27.9521
29.7789
33.7171
35.5267
32.4886
32.9699
30.9311
33.6167
198.766
19.3445
21.527
42.9021
44.911
147.626
147.644
222.34
49.8862
212.677
236.042
194.643
230.941
251.255
189.902
224.436
171.784
285.121
116.553
288.868
289.866
281.644
282.946
263.884
286.237
233.946
270.537
243.523
232.964
296.823
317.624
301.602
305.75
278.258
284.386
286.94
264.934
261.102
288.856
287.557
277.405
205.427
278.542
263.394
274.481
293.634
289.157
287.24
291.45
303.673
316.984
205.722
281.687
301.169
293.849
328.537
298.054
317.536
333.398
304.086
288.039
279.394
253.325
281.363
254.402
283.705
326.068
284.112
303.004
295.988
333.959
343.78
331.885
320.395
306.073
303.279
291.043
339.003
340.981
0.0366858
0.0393453
0.216968
0.238008
0.0413601
0.0558139
0.0454491
0.0553032
0.0330669
0.03226
0.0229662
0.034954
0.0349913
0.233512
0.122515
0.170219
0.259285
0.265628
0.271165
0.265639
0.287171
0.632588
0.619636
0.789994
0.427063
0.285617
0.265515
0.363187
0.940512
1.24994
0.974198
1.63556
0.394028
0.44739
4.47965
6.57753
6.86158
3.37936
4.74202
7.37039
8.72169
20.7344
24.2883
22.8051
248.331
206.667
52.3209
204.705
149.735
194.779
221.907
215.978
261.954
78.8802
57.8479
58.7335
61.0491
125.093
220.832
57.9882
227.51
56.8504
186.507
198.831
287.445
224.728
290.213
287.317
229.943
286.287
247.355
278.819
280.569
260.21
275.381
232.948
287.755
247.531
261.077
297.119
255.718
301.219
278.814
277.858
293.13
287.2
236.551
259.067
258.322
286.192
274.354
274.673
303.814
272.515
314.955
292.382
291.256
291.578
316.039
281.521
276.164
319.302
290.795
319.582
297.573
296.011
317.679
280.315
287.566
293.741
255.194
308.1
260.247
283.643
329.542
304.628
304.157
332.155
334.197
332.628
332.321
293.848
305.412
291.237
290.517
307.101
340.924
339.53
0.0301776
0.031765
0.194017
0.199668
0.275566
0.263382
0.223316
0.0442461
0.0214955
0.0399589
0.0396397
0.0390043
0.0416607
0.0376937
0.160221
0.176171
0.388382
0.382713
0.177756
0.0985109
0.12937
0.346432
0.418052
0.659162
0.826354
0.533296
0.648904
0.481196
0.14292
0.181358
0.187298
0.283385
0.346785
0.588902
3.77417
6.07574
2.88654
14.2815
19.1763
18.3045
14.7971
2.63664
2.48852
16.9506
199.867
238.512
176.995
203.542
146.945
45.9607
261.493
215.357
259.194
258.781
186.562
130.342
173.819
34.2591
53.0222
60.5123
48.0653
195.563
196.642
229.289
246.931
287.515
262.737
291.067
219.244
219.322
272.654
244.834
301.488
281.495
270.219
275.13
271.871
285.033
265.025
255.217
272.837
254.351
287.988
280.083
255.475
292.916
235.74
191.731
282.292
258.619
267.067
275.463
315.502
306.293
318.803
315.348
291.279
305.719
281.836
280.307
311.881
318.169
299.845
316.385
291.415
244.656
274.47
221.016
342.169
292.61
359.078
310.658
285.488
327.262
307.28
327.042
334.157
319.02
334.362
298.688
295.965
276.797
293.627
273.55
308.052
302.949
340.061
329.208
0.0385647
0.0363146
0.183991
0.120317
0.291376
0.2768
0.193125
0.082811
0.0873554
0.0672847
0.0866985
0.168514
0.720846
0.237673
0.823731
0.820552
0.385407
0.385838
0.279682
0.348164
0.418878
1.30177
1.985
2.0259
1.30222
0.698862
0.501796
0.238799
0.242935
0.238177
0.258117
0.248694
0.524828
0.161667
0.154354
0.64893
11.1018
9.6013
15.4546
12.5924
2.31404
2.66842
3.09874
20.3198
261.415
211.714
242.2
178.124
224.842
65.4915
239.697
255.393
151.553
262.685
72.5816
68.9081
40.2853
43.8864
61.8484
197.773
195.858
211.434
230.733
50.143
57.4265
245.972
262.245
262.518
282.98
219.111
299.823
275.637
271.459
301.045
258.344
267.455
271.328
269.7
282.684
264.741
282.146
272.755
282.193
287.098
252.049
253.962
194.263
270.375
287.52
285.132
288.517
272.446
304.913
318.211
273.512
317.37
314.141
305.056
315.826
281.247
311.058
312.279
301.052
296.519
249.239
213.749
231.847
270.267
353.135
347.735
366.271
361.111
345.668
327.779
326.686
323.902
319.346
303.877
295.817
292.129
275.5
289.506
274.338
311.752
307.399
311.975
334.05
332.057
0.93736
0.133743
0.275884
0.275929
0.275355
0.284674
0.0728781
0.082747
0.127982
0.0810041
0.334364
0.30844
0.38601
2.08496
0.812519
0.937302
0.690021
0.363571
0.241842
0.217955
0.210795
0.183298
1.87752
1.91095
1.34036
0.565706
0.402058
0.282346
0.28958
0.239021
0.225703
0.302008
0.259711
0.451978
0.628439
0.484886
0.387995
10.4695
12.0879
2.03156
8.75797
1.76659
14.2014
20.4293
223.526
250.145
244.574
231.477
182.427
221.371
243.099
70.884
54.3928
59.8699
62.6116
53.0979
197.019
206.778
250.666
200.69
214.721
34.936
42.6782
38.9735
51.5344
52.8075
250.646
263.023
290.793
283.507
260.836
299.519
272.975
267.93
261.76
257.03
265.541
270.502
285.136
282.031
284.259
281.067
289.555
281.105
285.528
252.738
302.637
270.961
295.961
288.767
278.097
288.669
277.303
302.377
286.184
272.523
299.977
315.043
309.855
315.849
297.66
309.025
294.385
293.646
208.223
329.713
273.738
325.531
331.973
354.277
338.357
365.743
324.307
343.273
334.957
321.89
302.419
302.795
290.653
304.112
284.661
315.828
307.975
325.65
309.779
334.343
332.787
325.534
0.955349
1.04412
0.269267
0.277186
0.234789
0.251473
0.119757
0.154187
0.253811
0.253776
0.3365
0.340117
0.350097
0.350736
0.357446
0.378763
0.349961
0.61123
0.31637
0.342229
0.381508
0.386339
2.90983
2.44667
1.26678
0.407045
0.136814
0.146629
0.223725
0.235359
0.202004
0.294122
0.349861
0.534468
0.579747
11.9896
10.5966
12.7504
14.236
5.80756
2.59304
2.62843
2.9092
175.649
181.271
231.105
214.795
251.754
56.1298
40.0117
55.6263
56.254
48.0473
114.697
230.556
55.5856
196.233
142.614
206.426
248.791
211.854
163.438
169.49
190.607
220.389
61.9072
217.563
250.715
259.51
290.755
277.891
260.837
271.061
273.338
260.709
264.151
260.583
266.924
267.058
285.669
285.905
284.521
284.915
289.451
306.219
286.274
296.479
301.246
270.639
290.616
301.864
273.954
314.733
278.295
299.689
289.939
296.914
301.295
301.933
310.867
299.389
280.759
295.716
276.682
338.061
329.492
350.179
324.022
342.555
331.169
338.664
313.246
324.612
296.169
332.515
335.299
302.658
320.722
304.793
264.595
310.524
310.728
345.909
322.94
351.74
332.823
324.289
338.648
0.185537
0.227371
0.172576
0.239253
0.172057
0.209656
0.0947757
0.0948665
0.250631
0.264392
0.272206
0.939935
0.280226
0.295093
0.345225
0.332292
0.395235
0.406843
0.40789
0.418771
0.703474
1.43874
2.56639
2.68691
0.95272
0.966141
0.544999
3.01976
4.19929
4.74427
5.40206
5.75935
6.45613
10.6527
20.8181
20.485
21.8541
21.136
22.6051
23.8662
0.865919
3.80353
190.329
227.61
184.737
44.2309
217.112
120.588
215.378
214.67
57.9797
165.1
103.831
185.023
253.49
225.316
56.7519
60.6861
206.327
180.439
152.292
191.094
183.04
38.8306
256.042
220.334
270.389
217.61
216.113
259.579
260.504
278.152
269.111
271.171
255.247
260.837
277.607
262.714
277.281
269.803
288.966
288.133
277.787
286.735
291.776
308.214
295.917
296.803
269.432
271.312
316.364
304.919
328.838
316.727
302.173
299.355
297.022
296.259
305.392
301.72
281.876
289.108
279.077
291.644
322.203
338.696
343.718
350.021
328.149
340.428
320.656
311.336
295.736
322.8
333.23
333.275
332.002
322.805
271.992
283.478
317.106
289.215
355.706
349.412
355.512
353.259
336.794
349.256
0.116597
0.126516
0.115111
0.136098
0.115095
0.149867
0.130074
0.139442
0.177122
0.240646
0.18469
0.259088
0.241249
0.288577
0.350119
0.366941
0.325785
0.357722
0.377587
0.393555
0.451716
0.470368
1.02106
1.30509
1.03722
1.27369
2.78521
3.14171
3.98616
4.03513
3.66972
4.16072
4.9613
3.44705
18.5712
21.2266
23.2067
23.9124
24.585
28.3783
26.7679
27.938
21.561
6.69859
9.6475
10.774
26.8609
32.7683
200.735
40.3372
167.172
178.009
222.585
185.564
219.821
255.963
74.4866
95.5322
181.197
211.632
191.366
207.596
43.2222
230.16
227.84
255.64
247.064
270.353
235.351
216.168
248.406
260.513
233.93
269.105
208.757
254.696
273.551
277.108
312.578
277.331
294.64
288.85
290.549
278.443
290.401
292.687
300.077
298.394
288.315
273.967
314.311
318.605
315.496
329.162
298.569
301.077
299.444
296.291
307.939
304.832
299.824
288.587
290.691
306.993
306.442
321.611
324.608
343.175
317.083
327.235
336.064
320.99
334.243
322.44
330.373
332.219
347.992
333.303
283.552
332.762
296.416
336.517
358.938
335.32
357.87
325.403
348.123
320.373
0.0368343
0.0945673
0.0923615
0.0952192
0.117347
0.101555
0.0818144
0.083896
0.13557
0.124898
0.154874
0.157325
0.139767
0.211605
0.126653
0.284718
0.192113
0.265882
0.335824
0.378349
0.416656
0.464776
0.49716
0.547324
0.592148
0.640692
0.756125
2.47714
1.33672
3.52088
2.66012
2.90052
2.93429
3.33992
15.7275
19.1989
22.6705
25.7281
19.6433
21.9678
22.0771
23.6011
5.72686
17.9849
10.6511
17.7959
33.8925
39.5109
37.8313
39.8802
21.7225
30.6394
220.166
212.675
220.283
205.301
93.327
156.614
212.454
54.2315
215.192
243.019
239.303
263.766
238.686
227.745
250.169
247.113
240.446
235.298
248.19
248.417
227.159
233.919
226.759
208.688
234.408
273.796
285.157
312.346
300.917
291.877
319.879
290.717
294.276
289.8
294.268
299.288
295.992
287.924
312.045
313.351
300.746
313.849
313.754
299.114
299.614
300.024
303.03
308.033
290.6
299.168
312.217
305.591
332.753
306.864
325.193
303.241
317.524
320.482
345.526
337.326
331.567
335.972
334.149
331.327
347.143
348.78
329.241
326.519
331.084
335.527
330.897
333.458
323.209
320.665
321.328
326.355
0.0815184
0.0268455
0.0984957
0.115795
0.10674
0.117307
0.110919
0.101757
0.102837
0.125827
0.119478
0.133749
0.044383
0.124653
0.0456408
0.0797889
0.122309
0.0366822
0.167284
0.0962823
0.181203
0.623663
1.46225
2.8273
1.52472
2.7617
1.54816
1.62924
1.73669
1.84569
2.72209
2.4748
2.56294
2.66496
22.425
26.6391
28.5466
32.7385
29.6001
31.9222
31.4041
34.3498
16.0002
15.4101
258.033
33.0991
47.8343
42.7541
44.0578
43.8067
33.494
172.738
210.727
219.765
200.964
29.7865
27.2268
29.0005
38.2393
42.8659
241.979
252.673
263.902
263.749
239.199
238.622
259.88
250.175
256.32
240.488
223.254
248.24
225.955
227.046
267.028
226.862
294.579
234.741
247.676
286.694
257.179
302.667
311.063
320.555
302.517
293.148
292.303
292.696
301.008
295.398
296.631
310.082
301.589
298.642
304.276
312.261
298.623
298.555
302.01
300.804
311.209
290.169
310.446
312.117
324.669
332.271
302.014
320.504
328.699
320.563
327.864
343.847
335.047
329.966
338.003
332.987
337.083
344.899
336.94
325.698
334.355
293.91
327.944
299.123
354.129
319.687
354.259
329.016
0.093135
0.0888377
0.0161458
0.0999641
0.016765
0.107693
0.0222844
0.108989
0.0282585
0.0289249
0.0301343
0.0394899
0.0394019
0.0604393
0.0659152
0.0786973
0.0830678
0.0931618
0.0968114
0.10656
0.162265
0.16817
3.00838
2.90309
4.85941
3.70042
3.70869
1.89511
2.30156
1.49529
1.69594
2.61401
2.60903
7.21612
31.9059
38.203
36.5838
39.9392
38.6848
41.2193
44.4804
43.9622
33.9919
34.6741
31.2086
12.0016
24.7524
40.1408
43.0242
27.8996
180.68
229.362
219.617
227.299
37.2721
26.4068
34.2043
30.9259
43.2969
38.7056
247.235
234.161
259.784
243.184
217.311
239.052
229.727
259.883
246.749
256.29
245.801
223.277
252.37
226.025
243.724
266.971
280.683
293.271
301.842
246.854
258.868
257.089
262.871
310.732
298.908
302.494
294.538
291.686
301.139
300.546
296.135
295.731
299.131
301.642
299.059
303.602
312.547
299.201
306.983
302.658
314.796
312.471
319.226
311.058
317.986
324.831
318.548
320.273
328.605
328.22
325.96
326.619
334.269
335.368
336.126
337.775
336.148
336.144
333.657
336.743
295.994
330.369
307.659
299.171
342.307
357.851
370.562
356.021
0.018037
0.0221008
0.0219234
0.0234923
0.0221735
0.0195498
0.0221194
0.0265221
0.0249704
0.0240884
0.0212824
0.022667
0.0302527
0.045978
0.054525
0.0633385
0.0694077
0.0855181
0.0921684
0.0806998
0.126477
0.248609
0.281588
0.275094
3.37359
1.8401
5.78193
3.96525
6.1765
8.66754
10.4738
3.64178
7.87397
24.8102
37.0896
44.3642
44.6952
48.1458
44.841
45.6348
43.9937
39.5314
36.2101
37.2317
30.1154
36.1523
35.9112
33.817
22.3188
205.335
169.537
221.62
219.066
188.795
188.571
188.752
36.3652
36.9775
40.8417
151.844
231.146
165.416
241.996
203.454
185.475
217.343
246.678
229.776
229.187
246.782
268.56
245.407
274.598
252.513
230.545
244.376
276.654
281.405
295.891
302.474
272.922
258.353
266.483
262.391
280.186
299.714
283.406
295.41
297.656
301.392
304.083
297.086
306.223
300.608
308.057
301.255
312.817
313.248
310.597
307.501
309.28
314.933
322.575
319.669
319.254
318.046
319.939
319.415
328.116
329.313
325.434
326.625
332.291
334.565
334.954
336.375
340.16
336.815
341.582
335.455
341.335
331.36
301.511
324.018
334.639
344.3
361.449
372.036
0.0142395
0.0152787
0.0160118
0.021892
0.0216642
0.0276407
0.0307575
0.0333954
0.0314204
0.0375415
0.0337139
0.0370784
0.0416526
0.0284966
0.0245229
0.0240493
0.0319709
0.0432697
0.0378147
0.148611
0.209769
0.0802993
0.211062
0.106103
0.885137
1.57114
3.63263
3.57981
11.6789
9.7229
19.2694
11.4041
24.0184
47.6545
51.5685
58.5839
52.882
49.7158
49.5495
46.792
38.1645
33.8391
37.3793
24.038
39.4294
28.7212
37.5032
26.1376
192.383
48.3958
31.0021
39.9509
187.06
41.9597
193.897
149.803
166.131
158.439
172.465
200.563
170.408
154.03
202.29
161.381
211.208
185.368
256.129
246.457
243.963
228.96
256.7
268.468
283.696
274.967
249.817
230.957
292.579
277.56
270.068
296.038
259.597
272.916
266.007
265.993
278.814
279.586
279.432
283.515
298.196
298.872
308.696
305.796
310.39
307.492
314.772
309.261
302.906
312.788
306.128
310.487
321.82
309.428
319.549
322.683
321.979
319.767
320.111
320.33
321.314
327.776
329.676
325.655
331.209
332.446
336.171
335.355
339.183
340.533
343.542
341.782
345.913
341.649
333.872
322.642
343.365
334.53
346.062
360.698
0.00670892
0.012528
0.0136456
0.0204558
0.0228815
0.0239032
0.0286656
0.0309681
0.0361075
0.0418189
0.0424643
0.0504292
0.0507053
0.049322
0.0480517
0.0480143
0.0513717
0.141544
0.0871967
0.089141
0.070887
0.0354868
0.0445855
0.0464691
0.130653
0.199358
0.151006
0.122241
223.101
185.245
309.155
26.4875
62.6729
73.0074
75.8216
67.8648
60.0528
54.2106
52.3121
44.7789
39.9788
37.305
30.9022
26.8308
29.0223
33.1118
22.5287
36.5117
37.8643
46.8108
42.6578
49.9517
146.204
180.171
175.396
243.165
166.071
136.458
205.787
217.377
163.021
205.134
158.147
188.195
243.653
210.915
237.122
255.967
223.834
243.987
250.742
256.344
230.845
281.532
263.647
247.717
305.56
291.529
275.912
268.08
276.467
259.321
270.829
266.449
288.4
279.553
276.421
280.175
310.151
299.54
310.099
310.727
302.148
311.494
299.368
314.443
309.06
302.824
313.829
306.267
314.497
321.925
315.215
318.988
332.802
322.521
319.958
320.51
313.516
320.993
335.305
330.508
333.819
331.704
338.58
336.865
338.131
339.635
338.461
343.679
341.92
345.444
339.926
333.433
344.892
342.165
342.848
343.907
0.00694189
0.0108959
0.0129626
0.0049065
0.00299325
0.00350257
0.00747284
0.00493413
0.008878
0.0284485
0.034447
0.0469836
0.0597133
0.0598538
0.0928713
0.288139
0.192399
0.176161
0.124565
0.123166
0.0320936
0.300662
0.206594
1.14433
0.595837
1.09932
1.42593
1.05395
6.21042
197.153
17.1868
21.5958
6.20728
42.1752
60.1288
54.0292
33.6206
48.1927
43.1445
35.4381
37.1683
40.723
29.457
39.4904
33.4664
38.9944
36.1946
37.3629
41.385
40.6176
38.5057
37.378
156.66
188.196
239.592
222.772
116.313
180.059
211.814
216.418
202.261
202.015
186.725
204.234
223.472
243.634
192.395
237.67
240.131
223.332
241.032
250.486
212.816
230.082
285.543
265.634
299.989
306.342
273.256
275.998
280.298
276.427
283.958
270.752
288.612
288.174
284.34
276.172
303.373
309.786
312.944
309.578
308.984
301.586
288.083
298.669
310.063
309.161
317.089
313.912
296.132
313.226
329.402
315.742
338.097
333.677
319.531
320.135
323.348
314.619
326.013
335.876
337.091
334.186
337.255
338.653
337.966
338.062
336.3
338.338
333.907
341.517
348.01
340.821
340.976
344.613
341.933
342.162
0.00450601
0.168673
0.0413501
0.0132559
0.0379482
0.000603463
0.000693356
0.000608058
0.00227074
0.0319774
0.00347202
0.00561794
0
0
0.603688
0.816736
0.533642
0.409198
0.145634
1.12319
1.89311
1.63724
0.948855
1.58534
1.81373
1.87589
3.90765
3.41949
6.56528
8.27289
8.17657
11.9512
6.37198
2.9901
31.0332
32.5207
13.7383
12.6854
32.683
39.0267
39.1707
42.0777
38.6095
38.5326
37.7545
35.3087
35.2566
31.9568
37.8482
27.882
32.7329
25.5247
13.3475
8.09187
208.731
186.206
160.222
188.243
204.905
123.457
193.735
192.435
200.024
200.429
157.012
223.506
159.444
192.413
237.098
240.828
245.153
241.274
240.136
214.616
224.229
285.213
295.679
298.908
308.914
274.26
281.074
281.137
287.319
284.832
281.695
288.623
246.139
282.625
290.965
300.942
328.977
312.49
308.538
308.124
315.014
288.442
307.093
310.158
313.854
317.249
317.102
297.574
323.748
330.694
325.148
337.804
320.271
318.867
330.215
323.28
331.402
325.795
330.797
337.104
336.537
336.973
341.591
338.17
340.337
336.864
336.386
334.785
345.056
349.091
345.529
341.702
342.616
343.491
0.0199171
0.0306846
0.0412099
0.0307159
0.431293
0.4592
0.485144
0.695897
0.669257
0.758431
0.84977
0.756512
1.04679
0.753589
0.882662
0.589084
0.111993
0.327507
0.394781
0.544895
1.98542
1.69859
2.30367
1.3759
3.37862
2.47671
3.69774
3.20821
3.9265
4.90564
4.34878
5.95182
4.70585
4.68269
6.18069
13.03
21.6388
21.7799
32.6557
36.5904
38.0386
36.8014
35.4301
31.9686
32.4796
30.6681
29.9003
30.1243
28.9411
28.6689
28.2796
24.5033
15.3296
158.757
181.408
178.949
186.616
30.0532
25.5272
29.5245
191.682
129.54
203.558
200.512
211.044
157.229
231.357
163.235
208.052
237.983
237.983
245.994
240.067
241.311
221.504
225.113
279.177
296.942
315.166
310.287
282.441
281.76
277.153
287.567
280.806
281.845
241.428
246.602
310.004
293.48
331.744
330.978
294.409
309.339
313.805
315.584
314.991
307.05
312.627
313.886
320.463
317.366
324.997
323.346
317.515
324.701
328.999
321.048
333.416
330.988
331.325
331.712
326.051
330.488
337.161
336.821
340.284
341.746
345.517
340.639
342.285
336.817
336.55
344.695
345.879
345.512
349.94
342.914
0.0528798
0.0267162
0.0127782
0.0348021
0.0387051
0.0302279
0.20118
0.238514
0.21612
0.192846
0.258712
0.259132
0.500328
0.250514
0.667838
0.219108
0.0670816
0.218547
0.534918
0.360888
3.58191
1.72989
3.39873
2.4629
2.07282
2.1501
1.46947
1.69578
1.55872
1.73416
1.8015
1.71069
3.60091
3.3617
4.85678
16.0846
19.4916
25.4455
31.7227
29.4302
32.6217
30.1693
28.96
32.5
30.2416
30.2295
29.9844
23.6044
27.3648
7.75701
21.2078
16.8895
5.1083
10.2934
183.796
24.3943
28.6511
28.8614
30.1506
107.776
123.96
126.01
199.252
196.924
216.195
210.748
243.866
231.366
248.719
208.109
238.124
238.172
225.342
240.421
270.612
222.617
258.446
279.391
279.607
315.103
281.793
282.163
289.588
277.175
290.99
281.638
243.962
242.675
308.984
310.585
320.103
331.59
298.635
293.896
318.171
314.459
306.948
315.118
317.566
312.665
319.303
320.478
324.279
324.828
319.852
317.384
317.501
328.594
338.493
333.078
333.809
330.894
328.597
325.842
336.781
337.24
340.077
340.311
343.461
345.468
341.485
341.805
340.315
335.998
348.419
346.173
352.866
350.377
0.119577
0.110979
0.0223103
0.00314399
0.00298689
0.00295759
0.17407
0.175143
0.197237
0.192934
0.202347
0.167958
0.182975
0.214664
0.515
0.778865
0.68067
0.882717
1.21219
1.21814
1.78356
3.28438
1.19275
1.72903
0.75553
1.13856
1.08974
1.13788
1.27232
1.2374
1.58891
1.71297
2.90962
12.8268
15.8054
16.3025
18.3952
16.5067
22.5038
23.9171
25.736
27.6769
28.4985
28.6822
26.8592
30.2515
25.2017
4.89947
10.1353
5.86575
4.64328
5.09527
6.15927
24.8114
16.3107
29.3212
27.6016
162.079
117.022
183.378
120.062
164.565
193.654
184.892
211.735
215.92
229.257
243.897
240.986
248.436
238.834
237.417
246.629
224.648
256.344
270.086
262.758
256.897
276.198
278.763
287.985
281.793
294.87
289.752
294.315
291.358
261.56
244.841
284.244
308.728
315.43
319.789
309.589
299.319
317.345
318.549
313.454
307.242
310.895
317.893
322.392
319.623
325.099
324.66
314.774
320.013
323.783
317.839
341.044
339.641
328.648
334.186
333.241
329.058
336.924
337.007
339.93
340.364
342.543
343.663
341.947
341.868
341.905
340.804
350.818
348.733
352.886
352.966
0.0758533
0.121273
0.113504
0.12385
0.123996
0.129488
0.122109