# vtk DataFile Version 3.0
vtk output
ASCII
DATASET POLYDATA
POINTS 24578 float
-151.53 81.83 75.23
-146.76 79.98 77.9
-147.26 82.51 76.57
-151.22 79.35 76.36
-146.3 77.32 78.47
-150.76 76.75 77.01
-146.01 74.82 79.56
-150.4 74.19 77.98
-145.43 72.07 79.86
-149.95 71.56 78.66
-145.02 69.6 80.58
-149.55 69.11 79.46
-144.64 67.21 81.53
-149.14 66.64 80.2
-144.27 64.77 82.34
-148.68 64.12 80.8
-144.06 62.18 83.1
-148.26 61.63 81.51
-143.83 59.57 83.96
-148.2 59.14 82.73
-143.54 56.98 84.63
-148.02 56.58 83.6
-143.3 54.28 84.95
-147.52 53.77 83.62
-142.71 51.53 84.98
-147.03 50.98 83.68
-142.34 49.05 85.71
-146.66 48.52 84.06
-142.24 46.57 86.6
-146.26 46.05 84.34
-145.97 43.63 84.94
-141.82 44.09 87.11
-141.56 41.44 87.04
-145.67 41.21 85.5
-140.98 38.76 87.5
-145.29 38.66 85.7
-140.75 36.16 87.85
-144.89 36.1 85.85
-144.62 33.53 86.3
-140.46 33.57 88.45
-140.13 30.94 88.56
-144.22 30.94 86.41
-143.81 28.2 86.49
-139.84 28.2 88.9
-143.44 25.45 86.68
-139.6 25.51 89.44
-143.18 22.67 87.12
-139.22 22.78 89.44
-142.9 19.88 87.51
-138.79 20.04 89.71
-142.6 17.15 87.83
-138.39 17.32 89.75
-137.91 14.61 89.73
-142.25 14.42 88.03
-141.99 11.68 88.46
-137.6 11.89 89.94
-141.61 8.95 88.57
-137.22 9.16 90.05
-141.13 6.27 88.48
-136.86 6.45 90.3
-140.68 3.58 88.47
-136.37 3.76 90.16
-140.25 0.89 88.51
-135.88 1.07 90.03
-139.71 -1.79 88.26
-135.64 -1.76 90.02
-135.64 -4.55 89.75
-140 -4.44 88.09
-135.69 -7.09 89
-140.34 -7.12 88.03
-135.79 -9.62 88.23
-140.37 -9.69 87.25
-135.84 -12.19 87.54
-140.43 -12.27 86.54
-135.99 -14.75 87
-140.5 -14.79 85.8
-136.21 -17.35 86.64
-140.62 -17.33 85.19
-136.42 -19.93 86.21
-140.85 -19.94 84.82
-136.49 -22.42 85.34
-140.79 -22.34 83.7
-136.45 -24.91 84.43
-140.78 -24.79 82.73
-136.55 -27.44 83.74
-140.84 -27.3 81.99
-136.57 -29.97 82.98
-140.97 -29.86 81.42
-136.73 -32.54 82.43
-141.02 -32.36 80.63
-136.76 -35.12 81.64
-141.09 -34.97 79.94
-141.32 -37.69 79.69
-136.83 -37.72 80.96
-141.45 -40.33 79.13
-136.9 -40.34 80.32
-137.11 -43 79.41
-141.48 -42.91 78.35
-141.57 -45.38 77.61
-137.04 -45.54 78.64
-141.59 -47.8 76.7
-137.03 -47.91 77.56
-141.86 -50.43 76.49
-137.15 -50.39 76.9
-141.9 -52.84 75.63
-137.27 -52.84 76.11
-141.91 -55.11 74.4
-137.53 -55.19 75.26
-137.48 -57.49 74.21
-141.9 -57.35 73.07
-142.03 -59.74 72.14
-137.7 -59.92 73.43
-142.25 -62.22 71.44
-137.97 -62.48 72.92
-142.57 -64.67 70.67
-138.15 -65.14 72.4
-142.87 -67.1 69.86
-138.34 -67.41 71.12
-143.16 -69.56 69.09
-138.58 -69.8 70.17
-143.42 -71.97 68.22
-138.72 -72 68.84
-143.42 -74.03 66.78
-138.71 -74.17 67.59
-143.52 -76.26 65.69
-138.9 -76.5 66.65
-143.64 -78.59 64.8
-139.03 -78.91 65.88
-143.64 -80.66 63.43
-139.36 -81.09 64.3
-142.41 80.53 78.87
-142.88 83.09 77.59
-141.83 77.87 79.86
-141.49 75.33 80.8
-140.97 72.61 81.19
-140.47 70.13 81.77
-140.01 67.69 82.47
-139.94 65.21 83.59
-139.84 62.72 84.64
-139.44 60.04 85.13
-139.12 57.42 85.86
-138.88 54.8 86.42
-138.56 52.14 86.78
-138.19 49.56 87.25
-137.83 46.99 87.76
-137.58 44.31 88.01
-137.31 41.63 88.23
-137.03 38.95 89.21
-136.57 36.22 89.77
-136.22 33.57 90.06
-135.88 30.91 90.36
-135.74 28.24 91.1
-135.47 25.56 91.56
-134.94 22.88 91.41
-134.47 20.19 91.43
-134.08 17.49 91.57
-133.61 14.8 91.52
-133.09 12.1 91.2
-132.71 9.37 91.23
-132.3 6.67 91.32
-131.94 3.96 91.53
-131.76 1.11 91.67
-131.5 -1.71 91.62
-131.31 -4.41 90.89
-131.1 -7.09 90.13
-131.35 -9.7 89.79
-131.55 -12.29 89.33
-131.63 -14.81 88.62
-131.74 -17.34 87.96
-131.85 -19.85 87.19
-132.06 -22.42 86.66
-132.19 -25.02 86.17
-132.25 -27.57 85.48
-132.26 -30.09 84.65
-132.44 -32.72 84.26
-132.56 -35.36 83.72
-132.63 -37.97 83.04
-132.75 -40.58 81.94
-132.83 -43.16 80.72
-132.77 -45.71 79.94
-132.75 -48.3 79.25
-132.77 -50.64 78.12
-132.8 -52.99 77
-132.95 -55.32 76.2
-133.13 -57.69 75.53
-133.33 -60.11 74.69
-133.5 -62.48 73.72
-133.64 -65.09 73
-133.72 -67.59 72.04
-133.86 -69.81 70.74
-134.01 -72.03 69.43
-134.18 -74.44 68.63
-134.35 -76.86 67.84
-134.77 -79.33 66.76
-135.07 -81.54 65.2
-138.04 81.11 79.93
-138.51 83.66 78.64
-137.48 78.45 80.95
-136.81 75.7 81.58
-136.53 73.2 82.68
-136.2 70.85 83.66
-136.01 68.35 84.53
-135.78 65.76 85.17
-135.49 63.19 85.82
-135.19 60.56 86.38
-134.98 57.99 87.45
-134.76 55.37 88.25
-134.53 52.77 88.88
-134 50.11 89.1
-133.65 47.3 89.03
-133.3 44.56 89.42
-133.29 41.92 90.17
-132.89 39.2 91
-132.5 36.43 91.58
-132.05 33.68 92.21
-131.7 30.98 92.36
-131.44 28.31 92.66
-131.04 25.67 93.02
-130.62 23.02 93.01
-130.15 20.36 93.11
-129.82 17.66 93.35
-129.27 14.97 93.05
-128.74 12.27 92.73
-128.4 9.55 92.87
-127.96 6.85 92.86
-127.84 4 93.22
-127.59 1.17 93.17
-127.27 -1.64 92.97
-127.25 -4.36 92.57
-127.15 -7.08 92.07
-127.17 -9.83 91.83
-127.29 -12.38 91.16
-127.29 -14.86 90.23
-127.44 -17.42 89.6
-127.57 -19.97 88.96
-127.76 -22.53 88.35
-127.82 -25.1 87.72
-127.85 -27.64 86.95
-127.95 -30.27 86.46
-128.2 -32.95 86.24
-128.25 -35.54 85.49
-128.5 -38.26 84.8
-128.59 -40.83 83.55
-128.62 -43.36 82.3
-128.5 -45.86 81.36
-128.57 -48.51 80.64
-128.51 -50.96 79.6
-128.63 -53.39 78.68
-128.82 -55.89 78.24
-129.15 -58.39 77.85
-129.06 -60.46 76.29
-128.99 -62.4 74.44
-128.98 -64.79 73.19
-129.01 -67.15 71.96
-128.97 -69.58 70.84
-129.28 -72.05 69.98
-129.48 -74.55 69.36
-130.01 -77.21 68.65
-130.42 -79.71 67.63
-130.79 -82.03 66.21
-133.82 81.84 81.46
-134.36 84.47 80.38
-133.19 79.09 82.22
-132.49 76.28 82.7
-131.95 73.65 83.71
-131.93 71.29 85
-131.87 68.9 86.17
-131.5 66.27 86.57
-131.13 63.64 86.94
-130.87 61.02 87.58
-130.68 58.45 88.47
-130.46 55.86 89.34
-130.18 53.24 90.02
-129.88 50.44 90.31
-129.64 47.69 90.79
-129.42 44.94 91.36
-129.23 42.2 92.03
-128.71 39.37 92.41
-128.45 36.65 93.48
-128.03 33.86 94.03
-127.47 31.03 94.24
-127.19 28.41 94.71
-126.88 25.78 95.12
-126.32 23.16 94.88
-125.8 20.53 94.74
-125.36 17.84 94.64
-124.86 15.16 94.43
-124.49 12.44 94.52
-124.2 9.71 94.8
-123.95 6.88 94.78
-123.68 4.05 94.73
-123.4 1.23 94.62
-123.18 -1.6 94.69
-123.37 -4.41 94.84
-123.31 -7.12 94.32
-123.16 -9.79 93.63
-122.95 -12.42 92.76
-123.09 -14.99 92.12
-123.27 -17.57 91.56
-123.4 -20.13 90.9
-123.5 -22.66 90.14
-123.53 -25.22 89.42
-123.57 -27.78 88.7
-123.68 -30.42 88.22
-123.74 -33.02 87.62
-123.94 -35.69 86.77
-124.14 -38.36 85.91
-124.27 -40.96 84.88
-124.51 -43.67 84.17
-124.44 -46.18 83.04
-124.36 -48.68 81.9
-124.32 -51.14 80.87
-124.34 -53.66 80.01
-124.65 -56.22 79.72
-124.85 -58.64 79.12
-124.76 -60.62 77.46
-124.57 -62.46 75.52
-124.49 -64.69 73.94
-124.51 -67.1 72.74
-124.57 -69.65 71.8
-124.65 -72.26 70.99
-125.14 -74.86 70.13
-125.57 -77.36 69.04
-126.01 -79.84 67.96
-126.39 -82.16 66.58
-129.58 82.52 82.46
-130.23 85.32 82
-128.9 79.77 83.09
-128.4 77.11 83.84
-127.98 74.41 84.96
-127.56 71.77 85.9
-127.33 69.24 86.57
-127.15 66.76 87.43
-126.86 64.14 88.01
-126.52 61.49 88.81
-126.36 58.96 89.84
-126.14 56.38 90.8
-125.97 53.53 91.15
-125.51 50.64 91.5
-125.42 47.93 92.31
-125.22 45.19 93.14
-125.05 42.45 93.81
-124.64 39.66 94.38
-124.31 36.88 95.2
-123.77 34.05 95.42
-123.26 31.23 95.69
-122.78 28.52 96.11
-122.44 25.87 96.38
-121.98 23.27 96.26
-121.42 20.65 96.06
-121.04 17.96 96.08
-120.68 15.29 96.36
-120.38 12.57 96.56
-120.17 9.75 96.72
-119.91 6.93 96.66
-119.55 4.12 96.37
-119.27 1.3 96.28
-119.07 -1.54 96.32
-119.25 -4.36 96.51
-119.22 -7.1 96.08
-119.04 -9.77 95.31
-119 -12.5 94.8
-118.91 -15.21 94.19
-119.08 -17.79 93.59
-119.2 -20.38 92.98
-119.3 -22.91 92.18
-119.31 -25.47 91.43
-119.31 -28 90.63
-119.33 -30.55 89.87
-119.45 -33.15 88.84
-119.6 -35.8 87.91
-119.83 -38.5 87.17
-120.05 -41.2 86.43
-120.26 -43.87 85.57
-120.32 -46.42 84.63
-120.24 -48.94 83.59
-120.24 -51.46 82.7
-120.29 -53.99 81.83
-120.1 -56.26 80.6
-120.22 -58.48 79.45
-120.33 -60.66 78.2
-120.24 -62.81 76.84
-120.26 -65.2 75.6
-120.18 -67.48 74.2
-120.23 -70.02 73.25
-120.52 -72.67 72.16
-120.81 -75.19 70.96
-121.18 -77.58 69.65
-121.52 -79.9 68.24
-121.92 -82.27 66.97
-125.25 83.17 83.41
-125.88 85.88 82.84
-124.6 80.45 83.94
-124.22 77.72 84.75
-123.94 75.09 85.93
-123.46 72.43 86.81
-122.93 69.71 87.46
-122.73 67.14 88.15
-122.59 64.64 89.06
-122.25 62 89.9
-121.95 59.4 90.9
-121.96 56.7 91.92
-121.73 53.8 92.2
-121.47 50.99 93.04
-121.27 48.22 94.07
-121.07 45.45 94.8
-120.88 42.69 95.58
-120.53 39.9 96.26
-120.06 37.06 96.59
-119.52 34.23 96.77
-119.19 31.45 97.53
-118.64 28.71 97.7
-118.07 25.97 97.81
-117.65 23.36 97.86
-117.2 20.75 97.82
-116.76 18.09 97.81
-116.45 15.42 98.16
-116.25 12.62 98.27
-115.94 9.82 98.09
-115.72 7.01 98.16
-115.43 4.19 98.08
-115.24 1.34 98.13
-115.02 -1.5 98.11
-115.03 -4.27 97.86
-115.05 -7.04 97.62
-115.01 -9.78 97.12
-114.91 -12.5 96.46
-114.83 -15.21 95.87
-114.79 -17.94 95.36
-114.95 -20.55 94.79
-115.09 -23.14 94.17
-115.09 -25.69 93.41
-115.09 -28.25 92.66
-115.19 -30.82 91.55
-115.34 -33.43 90.58
-115.56 -36.16 89.86
-115.65 -38.76 88.81
-115.73 -41.32 87.6
-115.89 -43.96 86.62
-115.94 -46.5 85.75
-115.97 -49.02 84.82
-116.06 -51.62 84.1
-116.16 -54.22 83.41
-116 -56.46 81.98
-115.78 -58.59 80.34
-115.73 -60.7 78.9
-115.82 -63.01 77.89
-115.91 -65.56 77.02
-115.85 -67.86 75.66
-116.07 -70.39 74.35
-116.45 -73.24 73.66
-116.73 -75.78 72.45
-116.87 -78.01 70.66
-117.13 -80.1 68.85
-117.46 -82.37 67.36
-120.93 83.58 83.84
-121.35 86.18 83.25
-120.43 80.92 84.76
-120.24 78.29 85.68
-119.85 75.73 86.84
-119.39 73.08 87.68
-118.97 70.39 88.56
-118.52 67.71 89.38
-118.27 65.1 89.93
-117.89 62.43 90.71
-117.77 59.68 91.68
-117.62 56.89 92.64
-117.53 54.11 93.38
-117.25 51.28 94.27
-116.99 48.44 95.07
-116.61 45.56 95.63
-116.37 42.76 96.18
-116.01 39.98 96.85
-115.62 37.17 97.41
-115.23 34.39 98.02
-114.97 31.62 98.96
-114.53 28.91 99.33
-113.9 26.15 99.26
-113.4 23.47 99.53
-113.04 20.85 99.72
-112.61 18.2 99.71
-112.34 15.45 99.77
-112.11 12.66 99.75
-111.7 9.9 99.43
-111.54 7.08 99.65
-111.31 4.26 99.65
-111.1 1.42 99.6
-110.91 -1.42 99.76
-110.84 -4.17 99.3
-110.76 -6.92 98.71
-110.8 -9.71 98.47
-110.76 -12.46 97.96
-110.67 -15.19 97.39
-110.65 -17.93 96.92
-110.56 -20.62 96.27
-110.66 -23.19 95.59
[...]
CELL_DATA 49152
SCALARS Temperature float 1
LOOKUP_TABLE default
31.4133
31.314
237.231
219.619
60.0417
174.89
267.69
180.359
63.0378
61.988
64.7369
177.892
147.749
233.244
200.967
22.5738
38.4484
61.4119
33.3997
48.5773
215.956
274.86
276.235
269.07
184.83
258.833
175.433
297.625
274.14
278.448
306.117
233.269
257.405
279.703
263.271
294.119
269.1
264.156
298.751
302.022
303.645
296.385
306.567
296.985
303.033
312.892
291.14
295.263
288.62
295.917
301.07
274.629
253.958
261.51
270.998
271.006
286.795
277.673
295.611
298.453
287.017
291.108
298.808
291.566
299.971
281.428
319.173
242.058
300.984
301.875
297.052
298.185
287.555
306.346
281.158
305.942
294.147
287.927
317.56
335.895
327.255
330.717
317.005
321.459
322.66
306.884
305.146
324.896
324.278
316.969
291.01
304.709
296.952
299.724
310.281
306.098
304.971
306.211
313.95
318.173
256.566
278.072
292.506
289.931
316.405
306.023
318.968
336.06
317.463
312.734
308.084
301.801
314.751
308.114
321.489
334.258
308.957
314.888
310.502
323.321
330.904
326.983
318.751
313.889
311.999
308.042
339.165
339.759
30.7992
31.7517
31.9205
224.3
39.2424
53.7887
234.235
252.225
54.8883
64.463
61.2765
69.8101
74.1755
46.3592
62.0841
205.875
248.135
63.7814
151.555
175.459
198.069
249.754
248.366
296.548
264.724
219.474
245.103
96.5351
237.113
162.923
223.23
270.596
227.753
201.331
266.801
264.069
251.785
264.509
278.15
272.314
268.003
250.674
271.571
274.427
315.673
298.369
284.222
290.205
280.77
290.989
297.702
295.291
310.957
248.212
265.057
254.002
239.568
246.155
267.819
256.572
284.528
275.391
286.317
287.389
319.805
276.748
307.755
305.032
276.836
316.557
298.826
319.509
320.288
306.437
313.182
285.419
310.838
278.674
285.626
316.238
295.238
329.59
318.655
317.987
325.377
320.777
299.435
312.299
311.958
330.182
325.041
325.261
338.419
314.923
336.418
315.715
315.048
315.143
329.425
320.467
317.871
329.815
312.509
321.81
306.838
306.623
320.688
309.432
313.157
314.88
294.951
309.713
279.909
286.535
319.15
311.347
310.981
320.609
322.217
321.748
321.647
308.964
316.137
311.664
311.203
316.314
339.87
339.457
29.3191
28.3021
25.3687
24.3014
29.4998
29.6678
22.2104
253.237
59.83
262.156
220.441
45.3964
263.359
81.5107
21.0286
53.3249
198.583
225.675
59.5572
225.452
210.943
255.104
248.387
285.729
298.611
265.927
297.552
221.933
238.136
254.474
164.909
286.343
224.246
231.065
259.349
258.158
277.682
270.329
287.907
291.832
237.171
257.295
241.815
247.745
279.379
296.869
280.588
288.697
279.155
275.915
310.896
286.976
302.862
302.675
279.873
276.663
281.603
284.229
266.946
260.141
277.651
282.871
283.118
286.989
293.899
322.356
311.474
330.849
305.216
305.273
323.202
306.822
331.356
315.968
310.725
314.163
312.674
322.143
313.155
306.962
314.423
302.093
317.764
311.556
300.102
327.159
303.201
296.832
326.057
310.45
313.943
319.762
339.702
331.425
338.333
335.116
322.298
325.613
312.854
312.512
329.692
335.613
325.147
339.877
326.592
315.211
326.943
315.837
365.944
324.625
361.797
309.006
292.232
304.193
287.481
294.877
301.219
295.615
308.955
295.387
293.304
286.96
297.931
291.542
314.016
312.338
338.179
334.873
21.6305
22.2859
233.688
16.5243
33.1693
28.58
19.3152
21.8501
46.0929
37.9536
44.9761
196.764
261.847
208.494
247.196
162.412
166.195
35.9499
48.7424
53.1134
43.3593
39.7862
153.091
170.726
234.966
256.063
219.636
297.574
252.966
281.601
239.622
245.777
239.483
253.614
227.514
203.863
261.644
263.366
287.97
288.695
273.736
268.315
280.606
277.849
319.328
296.636
305.628
281.51
292.82
247.846
286.379
296.163
267.587
312.007
283.945
279.706
300.251
298.483
272.46
283.92
283.45
285.145
291.391
284.606
267.445
321.117
326.47
326.669
334.415
300.706
331.129
312.89
311.006
333.026
314.101
319.653
321.177
320.149
325.73
313.719
321.391
314.759
319.17
322.862
307.55
308.762
290.681
303.86
312.597
310.55
312.414
298.275
316.974
330.394
305.706
342.9
341.224
333.577
339.421
309.263
325.971
327.172
320.677
319.575
295.648
288.948
294.631
303.283
352.282
346.225
358.601
352.242
342.098
321.317
320.428
319.835
316.496
312.518
307.337
306.195
296.166
300.225
290.443
302.745
299.287
300.971
318.936
318.268
266.982
87.8199
192.755
73.5013
36.9638
30.707
33.0922
26.4395
31.9256
45.0154
39.9541
45.2566
48.0122
190.262
113.336
221.988
47.5373
41.8007
47.3013
43.7901
39.7605
165.906
247.625
158.845
235.081
236.745
70.9664
240.361
229.542
217.602
236.11
235.717
273.982
268.721
212.679
223.959
255.252
264.388
259.653
269.796
236.175
241.153
235.027
241.973
279.497
294.845
292.615
285.102
270.772
286.236
294.271
282
293.505
290.28
285.294
287.138
298.059
298.936
312.035
289.347
292.901
292.501
281.586
282.104
263.42
262.108
305.632
313.199
325.359
319.925
310.105
336.867
325.411
322.315
319.821
317.097
320.353
323.418
329.67
327.565
328.545
326.384
330.222
324.31
326.324
304.578
327.911
301.646
315.236
308.478
302.599
311.929
305.849
327.566
319.074
308.094
322.4
336.031
333.187
338.555
328.962
338.349
331.117
330.78
299.21
326.334
290.024
308.013
313.27
341.854
330.14
362.475
336.127
355.309
350.431
337.728
326.458
326.12
319.445
322.447
311.127
319.848
314.414
320.175
308.396
316.972
315.633
313.099
161.739
209.055
36.9974
38.1947
33.714
32.4644
34.5973
37.8137
32.4224
33.7062
41.7792
41.486
42.7089
42.2469
43.207
45.0631
40.8179
41.405
38.5508
41.8177
41.7588
39.8563
235.892
217.571
65.4737
265.753
198.27
188.667
218.581
223.161
228.138
223.975
255.474
251.674
237.476
253.673
267.604
262.374
257.655
242.257
274.401
280.24
267.236
273.567
274.675
294.367
289.261
307.448
291.363
292.53
271.428
268.735
279.112
280.338
299.769
260.198
277.584
273.938
285.302
306.106
294.395
290.52
291.326
292.774
299.955
245.492
282.955
301.52
305.101
327.13
321.362
310.01
314.248
315.825
310.508
312.718
311.225
315.298
315.353
327.994
328.096
327.138
327.309
330.501
338.507
322.945
328.002
331.992
317.399
331.963
337.347
315.868
336.548
303.793
315.718
306.282
310.431
314.663
315.062
323.727
317.053
312.586
320.364
315.946
348.534
340.096
352.648
324.056
336.958
323.598
329.221
321.641
328.917
321.623
342.73
345.623
326.455
330.717
320.858
311.39
335.02
334.993
355.999
330.019
349.614
325.391
318.97
323.623
32.4405
35.9877
29.125
36.0046
27.9085
29.0824
27.8286
30.7487
33.3363
33.8763
34.9315
39.1108
33.3819
34.2033
42.4099
40.0029
48.8162
49.8056
50.1871
51.2289
56.4246
58.0374
66.2975
239.767
60.4076
137.072
59.1887
63.5748
64.3683
71.0038
73.6525
79.086
78.6626
81.647
80.2566
199.223
224.674
203.654
165.379
141.254
271.179
265.478
286.679
290.002
278.549
273.817
292.981
286.451
300.113
299.998
274.696
281.776
276.573
280.229
301.57
285.191
266.026
260.933
285.099
282.757
278.537
281.135
279.456
274.717
307.21
287.321
306.885
272.295
271.713
299.273
299.695
312.701
308.534
310.008
303.123
306.775
314.242
303.507
310.399
304.745
314.422
313.727
308.427
315.68
318.337
332.89
326.401
327.161
313.885
315.239
337.917
327.441
341.142
328.848
320.315
317.638
316.299
315.6
320.87
317.387
306.16
307.915
302.31
305.441
324.603
342.325
345.56
352.43
339.061
351.22
339.554
330.967
322.076
328.787
335.643
335.706
334.885
323.813
291.073
293.543
316.01
308.448
351.486
343.244
347.634
344.542
332.402
336.21
27.8923
31.0271
27.4757
27.7211
26.7439
27.7034
26.0404
26.0751
32.1874
36.4154
28.4908
35.6114
33.4696
37.3969
48.905
48.7249
42.4092
44.2177
47.1217
48.6443
56.9511
59.2661
67.4277
65.8192
70.736
68.3402
74.304
77.7394
82.2622
83.3187
87.5826
82.2426
82.7685
82.1038
177.845
166.118
187.102
157.482
149.418
191.15
215.113
214.127
256.918
275.404
243.831
243.009
249.338
241.021
279.716
270.911
283.927
284.666
295.319
281.143
289.919
309.384
273.196
275.856
283.942
286.835
281.693
283.354
263.434
274.868
273.906
292.705
288.904
305.674
290.956
280.58
292.511
300.853
290.047
312.413
291.322
313.988
321.395
323.753
340.093
312.564
321.099
316.231
317.138
306.734
313.129
315.181
319.329
317.758
312.159
299.529
322.971
327.431
325.542
339.635
322.102
324.365
323.431
320.677
327.132
324.269
321.461
311.446
312.579
316.703
316.354
331.52
333.346
352.179
337.148
346.432
351.391
336.929
344.857
332.368
337.455
339.552
350.037
332.191
299.659
313.022
283.559
297.715
320.02
313.662
333.09
325.257
341.604
334.148
8.36542
21.1544
20.3861
21.0598
27.4784
22.6052
20.0277
21.3676
33.9564
30.2428
39.6698
34.0947
37.1658
42.2681
35.4735
45.9782
33.732
34.154
49.7284
51.4492
57.143
62.3287
67.0164
71.8534
82.0272
78.7558
85.7399
74.3766
82.5836
60.0341
219.091
240.59
204.68
209.018
232.023
231.131
196.887
200.473
248.466
251.843
250.506
241.776
292.008
285.381
290.969
299.076
254.495
263.753
245.695
243.758
267.904
260.757
289.646
288.722
291.046
289.246
275.414
277.297
288.964
279.287
301.095
304.645
303.374
307.074
297.007
290.992
299.302
297.378
294.784
291.779
296.751
296.895
288.985
292.664
290.194
281.436
289.799
315.108
320.299
341.947
336.415
329.324
343.485
317.766
319.554
315.629
318.003
322.491
320.709
313.636
327.053
328.32
321.177
333.36
333.33
319.682
319.952
320.307
322.022
326.616
316.983
324.326
331.577
325.515
341.582
315.689
327.415
321.715
330.081
330.841
346.734
337.278
333.365
338.638
337.389
334.043
345.269
347.253
333.684
332.813
335.81
337.162
333.85
334.574
327.46
326.734
327.059
328.361
17.3732
5.69899
22.5994
26.6919
24.9748
29.9084
26.2399
23.1772
22.8568
33.2786
29.2858
34.1642
24.6338
31.1488
21.7073
23.356
34.2938
39.0628
43.8395
27.5774
60.9219
225.599
29.1185
274.229
242.429
261.837
210.813
208.67
200.291
201.937
226.044
208.212
192.523
192.71
216.646
213.504
198.416
214.835
235.981
227.603
221.319
206.919
273.764
276.511
307.343
299.451
279.823
279.543
261.359
258.354
269.693
275.701
284.622
285.765
280.168
277.462
275.005
274.187
260.84
256.878
301.251
302.888
307.642
307.637
297.811
297.474
305.827
299.537
302.095
292.01
285.808
299.989
291.994
292.55
308.052
282.435
313.785
262.261
268.968
304.635
289.015
327.658
332.12
340.943
331.353
323.46
322.979
323.303
327.574
322.734
323.374
335.114
330.693
328.195
331.081
338.123
331.157
331.108
332.8
331.816
337.277
319.478
330.404
331.931
339.136
346.528
329.596
333.85
338.805
330.255
334.963
353.093
347.634
342.088
347.087
341.431
344.15
353.031
347.956
335.517
341.432
330.42
349.413
341.295
371.294
334.634
356.4
324.273
19.7137
18.8696
4.21139
22.0149
4.56773
22.8461
4.99126
24.3278
12.1807
13.7113
14.2251
21.7694
18.1705
20.3384
20.7472
22.736
30.0201
193.092
144.489
120.843
200.083
207.05
265.696
262.915
286.16
289.91
286.162
218.171
240.493
189.115
194.872
229.036
207.267
223.095
170.364
173.531
215.362
214.223
204.405
206.075
90.5438
89.4049
215.235
214.219
222.511
299.094
272.5
262.116
268.271
273.248
284.319
288.664
285.384
286.341
270.16
272.448
260.935
261.927
230.056
238.054
283.497
281.336
292.861
290.11
280.475
292.535
289.103
307.3
302.059
307.902
303.869
291.918
302.3
286.896
293.401
309.147
315.515
325.689
330.098
286.134
291.339
289.908
292.705
334.164
328.089
331.135
327.097
324.776
329.547
329.043
326.784
326.445
328.183
330.352
329.018
332.904
337.572
326.049
330.164
326.335
333.011
330.851
334.766
326.968
331.062
337.747
334.035
335.756
340.838
340.421
339.025
339.733
344.484
345.693
346.166
347.991
346.98
346.97
345.399
348.83
324.313
333.418
318.259
315.979
344.196
363.435
371.377
352.26
4.13249
4.66631
4.85327
5.21616
5.07248
4.26939
4.8322
9.00277
11.0231
10.4625
9.90246
10.9301
14.0181
18.6854
83.8353
18.7025
123.034
26.6592
29.5231
94.4252
190.825
212.434
197.197
191.397
251.363
220.554
293.277
274.004
303.77
310.28
322.862
242.273
269.749
273.927
236.795
248.44
225.334
226.18
219.418
222.823
209.813
222.637
223.189
220.994
235.618
227.392
216.871
220.421
244.813
254.206
243.149
269.193
268.23
265.149
265.063
265.11
255.446
256.383
241.106
247.637
271.429
263.593
286.574
281.323
276.932
289.61
299.711
290.009
289.793
299.868
308.962
293.479
306.54
289.548
280.15
289.314
304.502
308.542
316.323
322.449
307.126
295.8
299.56
296.302
305.237
322.625
314.2
324.29
325.456
328.693
330.115
323.954
328.842
323.721
327.819
321.468
328
328.413
326.893
323.955
324.977
330.38
334.817
331.94
331.69
330.448
331.627
331.057
336.554
337.898
335.433
336.762
340.369
342.929
343.176
344.775
347.181
343.353
346.441
339.28
343.318
331.137
310.574
316.906
324.892
337.8
350.3
365.067
3.00641
3.14061
3.55749
4.57816
4.70861
8.57233
11.65
11.9312
12.4311
12.9882
14.1386
14.5138
17.1392
13.2465
12.2057
11.9114
14.9142
18.187
17.43
31.3887
46.15
18.4947
45.2778
40.7701
185.995
77.495
264.73
249.041
334.974
316.873
353.409
302.197
284.754
289.525
263.482
261.331
252.374
258.359
239.751
243.415
253.154
255.167
242.331
248.77
203.789
217.214
149.514
181.037
221.239
202.745
242.487
233.503
262.562
257.84
273.231
270.602
272.837
272.378
274.616
277.188
270.369
269.323
279.059
275.578
286.286
276.177
299.483
293.016
291.987
282.79
294.415
303.284
311.075
303.584
291.605
278.619
309.041
294.795
290.657
314.701
295.867
306.356
303.046
303.033
309.242
309.887
309.808
313.249
320.95
321.57
327.069
324.294
326.922
324.099
328.343
322.829
319.114
328.571
324.769
328.828
335.308
323.223
329.195
332.503
332.069
329.634
329.849
330.092
330.714
337.881
339.067
334.593
338.093
339.486
341.84
340.9
343.343
344.909
346.824
344.7
347.422
342.103
336.773
322.944
337.755
325.994
334.728
354.815
1.41476
2.66313
2.79826
4.2404
6.80504
8.72734
10.098
11.3363
11.8325
14.9207
15.5694
17.1392
18.0222
16.9518
17.477
17.4504
19.8707
12.1503
10.672
8.11271
12.0731
8.26774
18.6396
21.1247
33.6702
37.7471
29.1493
22.9859
288.356
272.315
322.809
322.775
298.995
255.508
200.457
202.473
206.378
207.743
188.973
195.856
199.445
210.653
218.822
228.275
221.408
216.91
237.096
226.892
239.19
222.041
269.519
260.531
292.27
293.719
293.019
298.756
278.889
277.693
288.965
290.165
278.203
281.707
271.925
274.183
292.122
273.231
283.023
295.795
282.827
294.807
297.617
301.451
291.393
324.673
317.058
307.249
332.95
320.968
313.31
307.32
311.199
297.914
303.297
299.763
311.04
303.028
301.355
304.698
321.707
310.838
317.29
317.953
312.613
322.233
314.978
329.77
326.676
320.832
327.199
319.845
324.749
332.531
328.448
332.468
340.897
329.268
327.629
328.255
323.794
331.977
340.993
335.477
337.612
335.144
339.654
337.59
338.426
340.272
339.486
345.982
344.831
349.141
345.584
337.719
345.507
342.054
342.524
343.855
1.46754
2.27161
2.6803
1.03377
1.03051
1.62308
3.02192
2.28547
4.11496
13.243
13.4303
16.2595
16.3791
16.5298
17.44
10.1232
9.29533
10.7807
7.12823
7.27421
7.50542
7.65488
5.13913
4.51254
13.748
2.75438
2.88475
2.18791
32.614
200.084
270.91
294.854
127.984
286.276
221.609
218.438
271.83
180.797
186.856
191.593
176.282
161.173
218.507
205.493
231.011
221.97
234.813
231.59
188.774
186.878
214.963
214.132
271.188
273.063
289.136
287.275
268.627
271.195
279.314
279.794
275.51
275.484
271.534
273.378
279.775
291.911
275.064
296.808
297.717
288.266
294.668
300.685
287.415
296.095
319.218
303.629
321.116
327.032
310.116
312.244
314.268
311.166
314.869
303.986
313.141
312.749
310.732
303.597
318.578
324.892
326.73
323.358
323.037
315.671
307.913
317.832
324.388
323.515
328.223
324.923
314.174
331.561
341.142
326.232
340.346
335.05
325.905
326.606
328.645
318.61
326.259
338.061
338.863
335.387
337.43
339.151
338.689
338.808
337.624
340.16
337.212
346.454
350.657
341.673
341.757
346.297
344.473
344.749
0.95184
0.210383
0.0548706
0.0551581
0.15113
0.126978
0.148825
0.130576
0.535563
1.07619
0.731265
1.18228
0
0
5.30734
4.80519
3.07458
5.932
3.08411
4.03684
4.53521
4.54153
2.89063
3.74501
4.10982
4.56829
11.0488
9.25585
24.3417
36.2061
32.3687
251.249
92.8147
89.4738
73.5155
70.2564
213.415
242.598
198.977
182.044
190.976
173.725
216.047
212.329
214.836
216.144
212.599
215.401
81.7287
44.4056
55.114
46.3766
221.813
212.292
254.19
251.854
245.574
247.817
253.547
248.074
260.751
260.633
262.905
262.963
252.347
280.499
263.725
274.422
288.927
291.295
293.077
290.542
290.096
274.726
278.133
321.199
326.326
329.048
334.232
304.462
307.736
307.785
311.051
308.805
307.151
313.353
293.02
320.18
324.2
332.486
347.068
331.257
329.033
328.646
332.459
307.126
317.935
321.122
323.44
327.173
327.116
305.538
322.857
331.235
327.581
342.437
331.558
330.031
337.018
329.11
334.317
327.685
331.048
338.739
338.36
338.899
341.989
337.667
339.146
334.685
334.353
332.311
339.483
344.814
342.376
337.373
338.003
339.159
0.172347
0.086035
0.0611597
0.0597973
0.604744
0.644282
0.696235
0.99402
0.942993
1.08473
1.22264
1.07558
1.52465
1.09253
1.27137
4.13135
0.860349
3.19775
2.74348
3.51042
6.26451
5.2376
7.54318
3.44238
10.2029
6.18903
11.1503
8.85258
11.7688
15.1985
13.2491
20.2084
39.0598
53.4207
40.9257
45.2127
49.6435
234.214
135.94
72.5792
142.064
134.595
190.186
193.92
191.122
191.537
198.308
195.389
203.877
202.318
203.613
207.8
228.954
236.778
242.519
242.308
244.595
239.248
241.298
238.497
259.261
255.362
269.314
268.994
272.296
250.865
273.374
237.21
251.577
272.266
272.267
278.328
275.47
276.408
267.66
270.002
297.093
313.767
324.751
319.659
302.907
302.274
299.618
309.161
305.382
306.322
286.191
289.834
323.689
307.282
331.879
330.999
307.579
322.498
325.194
327.044
326.681
318.293
321.835
323.195
327.44
324.012
329.044
327.156
323.281
331.349
334.16
325.092
333.434
330.53
330.765
331.24
327.33
332.71
337.312
336.892
339.297
341.131
343.75
337.541
338.71
331.717
331.52
341.979
342.81
342.338
345.472
336.174
0.186148
0.0677857
0.0458325
0.102559
0.206435
0.087235
0.291983
0.344182
0.312052
0.279325
0.345703
0.338743
0.700905
0.332799
0.95087
0.307081
0.351162
0.802989
2.57433
1.88477
8.12579
4.2021
7.81024
5.68142
6.18672
6.29734
5.93778
7.002
6.96655
8.12392
9.47497
23.4558
39.5965
42.5608
50.2581
50.8927
55.668
55.4851
60.8497
123.005
57.6749
92.2559
182.291
162.775
211.702
209.013
214.586
221.259
198.739
210.232
179.317
182.718
233.639
226.753
251.267
245.349
250.678
248.561
249.205
251.094
252.214
252.273
265.846
265.61
271.818
268.814
282.01
273.222
281.296
252.801
266.504
266.529
260.292
271.693
287.994
245.498
266.465
288.147
288.294
325.63
306.077
306.409
310.524
299.11
307.213
298.151
277.588
276.583
314.913
316.626
322.883
335.586
315.185
310.512
325.57
321.453
316.637
325.393
326.938
321.634
325.934
327.242
329.735
330.356
327.099
324.353
324.424
336.729
343.085
336.718
337.201
333.681
332.126
328.828
336.306
336.878
338.852
339.146
341.337
343.876
341.128
341.522
340.491
335.084
343.847
340.882
345.704
342.296
0.172591
0.162405
0.048455
0.0731377
0.0684191
0.0687313
0.253817
0.252653
0.28458
0.278626
0.292411
0.244784
0.26583
0.28294
0.73319
1.12707
0.970108
1.28713
1.93224
1.73921
4.27146
7.56688
3.48799
6.0378
3.82919
5.88352
5.82866
6.25133
7.35981
9.0122
19.2836
26.2631
34.67
37.7477
43.6114
40.714
46.4626
38.3775
41.1529
43.4668
43.35
48.2076
47.9398
48.7275
186.394
168.545
239.159
247.675
226.897
235.336
170.61
168.324
204.842
185.606
239.397
228.701
256.482
260.012
254.837
258.282
248.14
250.243
257.555
256.705
265.107
267.535
272.793
282.891
281.6
286.873
282.583
281.639
285.73
270.651
285.389
296.939
293.064
288.215
298.517
300.862
306.129
300.26
308.043
302.922
305.758
302.748
285.086
270.548
293.589
318.762
322.972
327.682
321.243
310.321
321.955
323.323
319.979
313.087
315.497
323.38
326.351
323.175
326.881
326.368
319.701
325.635
328.145
321.22
337.382
335.567
327.827
334.72
334.076
328.93
334.422
334.526
336.579
337.135
338.687
340.135
338.918
338.816
338.843
337.42
344.607
341.793
344.811
344.92
0.110152
0.174919
0.165041
0.178747
0.178881
0.187211
0.176576
0.187422
0.225771
0.214914
0.226481
0.192615
0.204936
0.285517
0.471035
0.538956
1.24166
0.709794
1.37609
1.64427
1.66501
2.8405
2.78277
2.32957
4.33071
4.60878
5.77589
7.23183
9.08423
17.6444
26.1533
29.2722
35.0661
32.4452
36.8643
32.8533
36.8531
26.5007
34.9535
35.6997
37.9287
41.3132
40.0434
41.5398
40.9475
14.0283
205.202
225.896
234.62
227.145
202.206
187.237
207.64
198.474
234.535
244.834
252.694
255.058
253.549
249.471
258.267
260.111
258.503
260.114
264.865
262.728
260.963
274.718
276.14
281.754
283.68
279.26
288.972
278.973
281.738
285.077
288.697
288.698
294.676
296.884
303.982
303.588
309.278
306.722
305.355
306.976
302.952
278.511