# vtk DataFile Version 3.0
vtk output
ASCII
DATASET POLYDATA
POINTS 24578 float
-151.53 81.83 75.23
-146.76 79.98 77.9
-147.26 82.51 76.57
-151.22 79.35 76.36
-146.3 77.32 78.47
-150.76 76.75 77.01
-146.01 74.82 79.56
-150.4 74.19 77.98
-145.43 72.07 79.86
-149.95 71.56 78.66
-145.02 69.6 80.58
-149.55 69.11 79.46
-144.64 67.21 81.53
-149.14 66.64 80.2
-144.27 64.77 82.34
-148.68 64.12 80.8
-144.06 62.18 83.1
-148.26 61.63 81.51
-143.83 59.57 83.96
-148.2 59.14 82.73
-143.54 56.98 84.63
-148.02 56.58 83.6
-143.3 54.28 84.95
-147.52 53.77 83.62
-142.71 51.53 84.98
-147.03 50.98 83.68
-142.34 49.05 85.71
-146.66 48.52 84.06
-142.24 46.57 86.6
-146.26 46.05 84.34
-145.97 43.63 84.94
-141.82 44.09 87.11
-141.56 41.44 87.04
-145.67 41.21 85.5
-140.98 38.76 87.5
-145.29 38.66 85.7
-140.75 36.16 87.85
-144.89 36.1 85.85
-144.62 33.53 86.3
-140.46 33.57 88.45
-140.13 30.94 88.56
-144.22 30.94 86.41
-143.81 28.2 86.49
-139.84 28.2 88.9
-143.44 25.45 86.68
-139.6 25.51 89.44
-143.18 22.67 87.12
-139.22 22.78 89.44
-142.9 19.88 87.51
-138.79 20.04 89.71
-142.6 17.15 87.83
-138.39 17.32 89.75
-137.91 14.61 89.73
-142.25 14.42 88.03
-141.99 11.68 88.46
-137.6 11.89 89.94
-141.61 8.95 88.57
-137.22 9.16 90.05
-141.13 6.27 88.48
-136.86 6.45 90.3
-140.68 3.58 88.47
-136.37 3.76 90.16
-140.25 0.89 88.51
-135.88 1.07 90.03
-139.71 -1.79 88.26
-135.64 -1.76 90.02
-135.64 -4.55 89.75
-140 -4.44 88.09
-135.69 -7.09 89
-140.34 -7.12 88.03
-135.79 -9.62 88.23
-140.37 -9.69 87.25
-135.84 -12.19 87.54
-140.43 -12.27 86.54
-135.99 -14.75 87
-140.5 -14.79 85.8
-136.21 -17.35 86.64
-140.62 -17.33 85.19
-136.42 -19.93 86.21
-140.85 -19.94 84.82
-136.49 -22.42 85.34
-140.79 -22.34 83.7
-136.45 -24.91 84.43
-140.78 -24.79 82.73
-136.55 -27.44 83.74
-140.84 -27.3 81.99
-136.57 -29.97 82.98
-140.97 -29.86 81.42
-136.73 -32.54 82.43
-141.02 -32.36 80.63
-136.76 -35.12 81.64
-141.09 -34.97 79.94
-141.32 -37.69 79.69
-136.83 -37.72 80.96
-141.45 -40.33 79.13
-136.9 -40.34 80.32
-137.11 -43 79.41
-141.48 -42.91 78.35
-141.57 -45.38 77.61
-137.04 -45.54 78.64
-141.59 -47.8 76.7
-137.03 -47.91 77.56
-141.86 -50.43 76.49
-137.15 -50.39 76.9
-141.9 -52.84 75.63
-137.27 -52.84 76.11
-141.91 -55.11 74.4
-137.53 -55.19 75.26
-137.48 -57.49 74.21
-141.9 -57.35 73.07
-142.03 -59.74 72.14
-137.7 -59.92 73.43
-142.25 -62.22 71.44
-137.97 -62.48 72.92
-142.57 -64.67 70.67
-138.15 -65.14 72.4
-142.87 -67.1 69.86
-138.34 -67.41 71.12
-143.16 -69.56 69.09
-138.58 -69.8 70.17
-143.42 -71.97 68.22
-138.72 -72 68.84
-143.42 -74.03 66.78
-138.71 -74.17 67.59
-143.52 -76.26 65.69
-138.9 -76.5 66.65
-143.64 -78.59 64.8
-139.03 -78.91 65.88
-143.64 -80.66 63.43
-139.36 -81.09 64.3
-142.41 80.53 78.87
-142.88 83.09 77.59
-141.83 77.87 79.86
-141.49 75.33 80.8
-140.97 72.61 81.19
-140.47 70.13 81.77
-140.01 67.69 82.47
-139.94 65.21 83.59
-139.84 62.72 84.64
-139.44 60.04 85.13
-139.12 57.42 85.86
-138.88 54.8 86.42
-138.56 52.14 86.78
-138.19 49.56 87.25
-137.83 46.99 87.76
-137.58 44.31 88.01
-137.31 41.63 88.23
-137.03 38.95 89.21
-136.57 36.22 89.77
-136.22 33.57 90.06
-135.88 30.91 90.36
-135.74 28.24 91.1
-135.47 25.56 91.56
-134.94 22.88 91.41
-134.47 20.19 91.43
-134.08 17.49 91.57
-133.61 14.8 91.52
-133.09 12.1 91.2
-132.71 9.37 91.23
-132.3 6.67 91.32
-131.94 3.96 91.53
-131.76 1.11 91.67
-131.5 -1.71 91.62
-131.31 -4.41 90.89
-131.1 -7.09 90.13
-131.35 -9.7 89.79
-131.55 -12.29 89.33
-131.63 -14.81 88.62
-131.74 -17.34 87.96
-131.85 -19.85 87.19
-132.06 -22.42 86.66
-132.19 -25.02 86.17
-132.25 -27.57 85.48
-132.26 -30.09 84.65
-132.44 -32.72 84.26
-132.56 -35.36 83.72
-132.63 -37.97 83.04
-132.75 -40.58 81.94
-132.83 -43.16 80.72
-132.77 -45.71 79.94
-132.75 -48.3 79.25
-132.77 -50.64 78.12
-132.8 -52.99 77
-132.95 -55.32 76.2
-133.13 -57.69 75.53
-133.33 -60.11 74.69
-133.5 -62.48 73.72
-133.64 -65.09 73
-133.72 -67.59 72.04
-133.86 -69.81 70.74
-134.01 -72.03 69.43
-134.18 -74.44 68.63
-134.35 -76.86 67.84
-134.77 -79.33 66.76
-135.07 -81.54 65.2
-138.04 81.11 79.93
-138.51 83.66 78.64
-137.48 78.45 80.95
-136.81 75.7 81.58
-136.53 73.2 82.68
-136.2 70.85 83.66
-136.01 68.35 84.53
-135.78 65.76 85.17
-135.49 63.19 85.82
-135.19 60.56 86.38
-134.98 57.99 87.45
-134.76 55.37 88.25
-134.53 52.77 88.88
-134 50.11 89.1
-133.65 47.3 89.03
-133.3 44.56 89.42
-133.29 41.92 90.17
-132.89 39.2 91
-132.5 36.43 91.58
-132.05 33.68 92.21
-131.7 30.98 92.36
-131.44 28.31 92.66
-131.04 25.67 93.02
-130.62 23.02 93.01
-130.15 20.36 93.11
-129.82 17.66 93.35
-129.27 14.97 93.05
-128.74 12.27 92.73
-128.4 9.55 92.87
-127.96 6.85 92.86
-127.84 4 93.22
-127.59 1.17 93.17
-127.27 -1.64 92.97
-127.25 -4.36 92.57
-127.15 -7.08 92.07
-127.17 -9.83 91.83
-127.29 -12.38 91.16
-127.29 -14.86 90.23
-127.44 -17.42 89.6
-127.57 -19.97 88.96
-127.76 -22.53 88.35
-127.82 -25.1 87.72
-127.85 -27.64 86.95
-127.95 -30.27 86.46
-128.2 -32.95 86.24
-128.25 -35.54 85.49
-128.5 -38.26 84.8
-128.59 -40.83 83.55
-128.62 -43.36 82.3
-128.5 -45.86 81.36
-128.57 -48.51 80.64
-128.51 -50.96 79.6
-128.63 -53.39 78.68
-128.82 -55.89 78.24
-129.15 -58.39 77.85
-129.06 -60.46 76.29
-128.99 -62.4 74.44
-128.98 -64.79 73.19
-129.01 -67.15 71.96
-128.97 -69.58 70.84
-129.28 -72.05 69.98
-129.48 -74.55 69.36
-130.01 -77.21 68.65
-130.42 -79.71 67.63
-130.79 -82.03 66.21
-133.82 81.84 81.46
-134.36 84.47 80.38
-133.19 79.09 82.22
-132.49 76.28 82.7
-131.95 73.65 83.71
-131.93 71.29 85
-131.87 68.9 86.17
-131.5 66.27 86.57
-131.13 63.64 86.94
-130.87 61.02 87.58
-130.68 58.45 88.47
-130.46 55.86 89.34
-130.18 53.24 90.02
-129.88 50.44 90.31
-129.64 47.69 90.79
-129.42 44.94 91.36
-129.23 42.2 92.03
-128.71 39.37 92.41
-128.45 36.65 93.48
-128.03 33.86 94.03
-127.47 31.03 94.24
-127.19 28.41 94.71
-126.88 25.78 95.12
-126.32 23.16 94.88
-125.8 20.53 94.74
-125.36 17.84 94.64
-124.86 15.16 94.43
-124.49 12.44 94.52
-124.2 9.71 94.8
-123.95 6.88 94.78
-123.68 4.05 94.73
-123.4 1.23 94.62
-123.18 -1.6 94.69
-123.37 -4.41 94.84
-123.31 -7.12 94.32
-123.16 -9.79 93.63
-122.95 -12.42 92.76
-123.09 -14.99 92.12
-123.27 -17.57 91.56
-123.4 -20.13 90.9
-123.5 -22.66 90.14
-123.53 -25.22 89.42
-123.57 -27.78 88.7
-123.68 -30.42 88.22
-123.74 -33.02 87.62
-123.94 -35.69 86.77
-124.14 -38.36 85.91
-124.27 -40.96 84.88
-124.51 -43.67 84.17
-124.44 -46.18 83.04
-124.36 -48.68 81.9
-124.32 -51.14 80.87
-124.34 -53.66 80.01
-124.65 -56.22 79.72
-124.85 -58.64 79.12
-124.76 -60.62 77.46
-124.57 -62.46 75.52
-124.49 -64.69 73.94
-124.51 -67.1 72.74
-124.57 -69.65 71.8
-124.65 -72.26 70.99
-125.14 -74.86 70.13
-125.57 -77.36 69.04
-126.01 -79.84 67.96
-126.39 -82.16 66.58
-129.58 82.52 82.46
-130.23 85.32 82
-128.9 79.77 83.09
-128.4 77.11 83.84
-127.98 74.41 84.96
-127.56 71.77 85.9
-127.33 69.24 86.57
-127.15 66.76 87.43
-126.86 64.14 88.01
-126.52 61.49 88.81
-126.36 58.96 89.84
-126.14 56.38 90.8
-125.97 53.53 91.15
-125.51 50.64 91.5
-125.42 47.93 92.31
-125.22 45.19 93.14
-125.05 42.45 93.81
-124.64 39.66 94.38
-124.31 36.88 95.2
-123.77 34.05 95.42
-123.26 31.23 95.69
-122.78 28.52 96.11
-122.44 25.87 96.38
-121.98 23.27 96.26
-121.42 20.65 96.06
-121.04 17.96 96.08
-120.68 15.29 96.36
-120.38 12.57 96.56
-120.17 9.75 96.72
-119.91 6.93 96.66
-119.55 4.12 96.37
-119.27 1.3 96.28
-119.07 -1.54 96.32
-119.25 -4.36 96.51
-119.22 -7.1 96.08
-119.04 -9.77 95.31
-119 -12.5 94.8
-118.91 -15.21 94.19
-119.08 -17.79 93.59
-119.2 -20.38 92.98
-119.3 -22.91 92.18
-119.31 -25.47 91.43
-119.31 -28 90.63
-119.33 -30.55 89.87
-119.45 -33.15 88.84
-119.6 -35.8 87.91
-119.83 -38.5 87.17
-120.05 -41.2 86.43
-120.26 -43.87 85.57
-120.32 -46.42 84.63
-120.24 -48.94 83.59
-120.24 -51.46 82.7
-120.29 -53.99 81.83
-120.1 -56.26 80.6
-120.22 -58.48 79.45
-120.33 -60.66 78.2
-120.24 -62.81 76.84
-120.26 -65.2 75.6
-120.18 -67.48 74.2
-120.23 -70.02 73.25
-120.52 -72.67 72.16
-120.81 -75.19 70.96
-121.18 -77.58 69.65
-121.52 -79.9 68.24
-121.92 -82.27 66.97
-125.25 83.17 83.41
-125.88 85.88 82.84
-124.6 80.45 83.94
-124.22 77.72 84.75
-123.94 75.09 85.93
-123.46 72.43 86.81
-122.93 69.71 87.46
-122.73 67.14 88.15
-122.59 64.64 89.06
-122.25 62 89.9
-121.95 59.4 90.9
-121.96 56.7 91.92
-121.73 53.8 92.2
-121.47 50.99 93.04
-121.27 48.22 94.07
-121.07 45.45 94.8
-120.88 42.69 95.58
-120.53 39.9 96.26
-120.06 37.06 96.59
-119.52 34.23 96.77
-119.19 31.45 97.53
-118.64 28.71 97.7
-118.07 25.97 97.81
-117.65 23.36 97.86
-117.2 20.75 97.82
-116.76 18.09 97.81
-116.45 15.42 98.16
-116.25 12.62 98.27
-115.94 9.82 98.09
-115.72 7.01 98.16
-115.43 4.19 98.08
-115.24 1.34 98.13
-115.02 -1.5 98.11
-115.03 -4.27 97.86
-115.05 -7.04 97.62
-115.01 -9.78 97.12
-114.91 -12.5 96.46
-114.83 -15.21 95.87
-114.79 -17.94 95.36
-114.95 -20.55 94.79
-115.09 -23.14 94.17
-115.09 -25.69 93.41
-115.09 -28.25 92.66
-115.19 -30.82 91.55
-115.34 -33.43 90.58
-115.56 -36.16 89.86
-115.65 -38.76 88.81
-115.73 -41.32 87.6
-115.89 -43.96 86.62
-115.94 -46.5 85.75
-115.97 -49.02 84.82
-116.06 -51.62 84.1
-116.16 -54.22 83.41
-116 -56.46 81.98
-115.78 -58.59 80.34
-115.73 -60.7 78.9
-115.82 -63.01 77.89
-115.91 -65.56 77.02
-115.85 -67.86 75.66
-116.07 -70.39 74.35
-116.45 -73.24 73.66
-116.73 -75.78 72.45
-116.87 -78.01 70.66
-117.13 -80.1 68.85
-117.46 -82.37 67.36
-120.93 83.58 83.84
-121.35 86.18 83.25
-120.43 80.92 84.76
-120.24 78.29 85.68
-119.85 75.73 86.84
-119.39 73.08 87.68
-118.97 70.39 88.56
-118.52 67.71 89.38
-118.27 65.1 89.93
-117.89 62.43 90.71
-117.77 59.68 91.68
-117.62 56.89 92.64
-117.53 54.11 93.38
-117.25 51.28 94.27
-116.99 48.44 95.07
-116.61 45.56 95.63
-116.37 42.76 96.18
-116.01 39.98 96.85
-115.62 37.17 97.41
-115.23 34.39 98.02
-114.97 31.62 98.96
-114.53 28.91 99.33
-113.9 26.15 99.26
-113.4 23.47 99.53
-113.04 20.85 99.72
-112.61 18.2 99.71
-112.34 15.45 99.77
-112.11 12.66 99.75
-111.7 9.9 99.43
-111.54 7.08 99.65
-111.31 4.26 99.65
-111.1 1.42 99.6
-110.91 -1.42 99.76
-110.84 -4.17 99.3
-110.76 -6.92 98.71
-110.8 -9.71 98.47
-110.76 -12.46 97.96
-110.67 -15.19 97.39
-110.65 -17.93 96.92
-110.56 -20.62 96.27
-110.66 -23.19 95.59
[...]
CELL_DATA 49152
SCALARS Temperature float 1
LOOKUP_TABLE default
330.315
326.189
285.218
291.277
323.664
315.988
255.974
290.665
297.258
302.717
313.981
299.819
306.089
289.574
306.427
300.53
312.903
331.816
294.586
307.836
258.461
213.798
210.812
220.332
300.362
274.885
319.629
272.797
303.661
289.786
239.186
292.981
271.912
256.072
277.462
254.186
288.28
299.338
255.925
252.402
249.32
283.668
267.945
303.165
295.899
246.19
286.589
267.831
278.237
238.181
223.848
255.145
280.548
253.076
236.875
236.877
190.647
262.647
223.694
186.487
229.401
179.795
61.29
239.216
214.881
238.015
69.0421
216.337
35.0544
32.2431
31.2037
28.9809
28.3836
21.4395
26.1521
16.3884
20.99
21.8298
2.36469
18.6946
13.3084
2.72969
3.96588
4.54405
3.97476
5.12325
5.48824
4.10263
4.03718
4.94042
7.24426
1.78238
4.30242
1.96535
1.20865
1.33213
1.08073
0.712546
0.461287
0.371253
0.851181
0.357334
0.408075
0.297567
0.257616
0.211273
0.156856
0.103913
0.111351
0.133114
0.158852
0.202659
0.147398
0.201503
0.104878
0.028103
0.0312072
0.0444235
0.0608719
0.0412152
0.0194166
0.0276508
0.0400067
0.0426001
0.0451143
0.0486633
8.71043e-05
9.84185e-05
326.025
328.14
306.972
283.546
313.393
321.778
262.404
252.005
285.411
297.317
295.687
312.724
324.392
305.651
323.529
306.825
281.075
307.637
297.059
294.354
286.566
267.926
269.608
223.946
284.833
302.978
285.699
314.288
253.918
275.777
243.953
204.04
268.327
317.85
278.628
287.14
297.109
264.144
244.376
268.662
273.828
312.134
296.771
289.279
201.038
234.515
263.644
224.286
246.482
234.736
214.579
218.898
81.6321
247.254
216.15
227.925
248.977
217.923
127.972
248.539
170.031
256.006
234.876
226.088
34.7362
39.3064
43.6483
39.7052
40.4455
22.753
28.6012
8.50332
7.29619
15.9316
6.23178
24.3972
4.56235
19.8301
3.37692
2.59088
2.93413
12.8718
2.74427
3.39024
2.55197
2.96441
5.40125
5.68596
5.77365
5.18943
5.64444
5.52666
2.00065
4.4932
1.54593
1.21782
0.94597
0.78001
0.658025
0.879387
0.816501
0.224688
0.483655
0.229503
0.221122
0.220712
0.181909
0.17106
0.162666
0.142413
0.197587
0.100363
0.215494
0.165113
0.0386464
0.0400964
0.0486002
0.0412679
0.0412171
0.0365178
0.0372671
0.0412462
0.0409023
0.0443917
0.0466336
0.0420052
8.08187e-05
7.52679e-05
327.011
326.302
309.691
307.812
280.136
307.213
317.883
266.508
320.314
290.892
318.591
303.582
305.862
331.781
298.919
322.984
284.79
276.984
321.603
302.505
309.379
295.884
301.197
281.023
257.505
284.871
226.093
281.461
268.874
260.085
307.591
269.354
319.489
306.158
286.306
290.099
268.681
294.159
274.177
256.783
309.962
267.163
281.209
266.179
212.766
173.34
234.005
223.228
245.669
262.359
67.6963
204.502
74.7636
77.0153
226.436
247.372
237.121
216.037
252.8
279.651
257.406
222.677
221.982
172.135
51.9181
41.5807
44.2219
31.8528
35.6467
31.6651
19.5936
9.05767
5.36096
4.60378
4.62341
4.96578
4.53647
4.1795
4.84346
4.36948
3.62391
4.00588
2.31943
2.46443
3.0803
2.68067
4.47196
6.16701
4.54045
5.22358
4.66587
4.54677
1.62193
1.476
1.28108
1.24792
1.10997
0.840383
0.720552
0.688853
0.519071
0.495971
0.565154
0.528154
0.563975
0.724543
0.607545
0.755343
0.0880276
0.0669995
0.0457445
0.027011
0.0279848
0.0178307
0.0280447
0.0228878
0.0251738
0.0184407
0.0304478
0.0332734
0.0446675
0.0347929
0.045409
0.0509662
0.0439922
0.0438301
4.93691e-05
3.6402e-05
318.3
329.78
294.272
311.328
267.501
280.53
310.975
320.667
335.674
319.369
332.571
316.47
276.339
296.477
269.357
292.226
291.302
285.31
311.393
319.207
307.223
303.12
293.619
291.662
255.788
242.462
278.949
225.735
295.135
281.019
316.391
303.129
306.949
264.044
285.623
322.919
292.764
287.044
254.419
250.175
273.063
288.899
275.011
284.062
164.37
226.486
189.605
234.434
199.415
251.513
92.7501
73.2261
231.751
84.8425
251.089
270.746
228.666
242.86
284.268
222.045
223.241
207.265
181.37
248.862
274.017
219.844
191.011
190.763
60.6185
224.13
13.3403
3.75584
4.25787
6.4206
5.44035
5.66865
5.57812
5.64661
4.73003
4.97713
13.1735
11.0369
9.16292
7.96615
4.18572
4.03594
5.33643
2.48855
1.52705
1.52777
1.33166
1.9667
0.588604
0.750905
0.777677
1.27377
1.14643
1.05714
0.903252
0.587163
0.371458
0.348251
0.382417
0.447432
0.607643
0.675747
0.672128
0.498243
0.0349454
0.0331614
0.0312445
0.0287582
0.0136526
0.0139346
0.0130973
0.0126566
0.0128185
0.0127675
0.0318134
0.0322418
0.0337715
0.0322789
0.0446921
0.0393403
0.0413804
0.0384099
0.0275401
0.025309
271.451
314.422
278.984
288.961
292.098
267.118
318.54
312.811
311.542
335.355
293.377
322.059
300.36
262.857
282.197
263.977
300.393
292.882
320.527
313.215
316.252
311.933
272.416
294.015
257.53
256.566
304.758
283.213
290.596
310.589
301.459
302.08
268.938
290.545
323.391
305.837
285.506
243.616
250.969
243.102
281.627
268.087
273.157
254.426
166.894
62.7564
64.9563
156.557
217.44
191.471
136.99
268.086
247.049
265.265
273.07
263.872
242.408
235.225
182.354
227.149
216.461
220.748
246.796
243.53
271.417
275.399
154.568
59.8249
19.8983
14.8164
13.0392
20.6033
17.1001
16.0385
14.877
12.918
11.3908
5.73024
17.5797
17.041
15.5764
14.5278
12.4353
10.8687
8.67304
4.34036
0.906202
2.01557
1.2822
1.56356
1.38188
1.23614
1.25124
1.00304
0.849592
1.02575
0.487386
0.868604
0.793709
0.815751
0.765159
0.693235
0.663809
0.651192
0.730505
0.0553808
0.1051
0.0622193
0.0507089
0.0184863
0.0109717
0.0266436
0.0199761
0.0185274
0.0155455
0.0128667
0.0129741
0.0306537
0.0318759
0.0291658
0.0321183
0.0240309
0.026549
0.014911
0.0256163
0.00332812
0.00845823
0.00294891
273.171
262.449
270.493
277.583
297.022
292.736
322.255
316.922
302.903
307.297
283.77
292.59
293.937
305.242
308.513
285.454
302.945
300.656
314.294
318.577
317.067
313.605
256.634
263.697
300.796
266.121
311.184
320.287
310.634
303.343
300.851
307.651
287.797
298.337
307.304
258.918
238.629
243.105
250.857
303.868
275.27
241.133
262.836
226.176
223.601
188.633
209.767
157.778
232.452
221.855
264.392
274.503
259.98
253.552
203.271
249.197
214.064
241.548
214.431
166.881
222.727
252.05
250.437
240.284
221.222
265.639
191.93
124.234
3.78813
20.1151
16.3596
11.6465
7.61008
8.39471
10.37
10.3465
12.9408
14.229
13.341
15.7912
14.5979
14.0488
12.6718
11.97
10.0637
6.91269
1.4786
0.428007
1.85651
0.550658
0.557426
0.310855
0.192468
0.143744
0.154432
0.741773
0.145844
0.124135
0.119553
0.153601
0.11437
0.351994
0.454776
0.627515
0.327433
0.0528686
0.0159852
0.0125298
0.0122432
0.0365342
0.0193788
0.0130328
0.0301033
0.038907
0.0160926
0.0156886
0.032277
0.02407
0.0301576
0.0364239
0.0240797
0.0234413
0.00927639
0.00695665
0.00557414
0.00243177
0.00280956
0.00247151
273.6
268.287
298.739
269.342
307.981
298.576
321.612
322.54
300.026
301.819
302.285
286.327
300.758
299.6
287.554
311.129
295.613
299.958
308.817
310.734
306.526
311.593
291.614
258.169
304.873
303.101
315.193
296.714
276.463
290.698
275.567
290.725
280.809
280.071
269.549
247.587
225.356
284.979
296.843
311.191
237.496
269.377
232.5
186.022
226.059
256.455
213.141
258.614
227.81
228.461
276.425
241.695
251.223
228.052
66.7994
178.924
236.134
261.112
214.215
234.5
243.27
224.318
228.528
258.08
118.917
196.089
42.37
163.268
166.174
23.1164
26.9191
25.5113
26.5153
20.216
4.35928
2.66437
1.67754
1.84911
1.52382
1.59425
0.909461
0.954384
0.599049
0.538966
0.395645
4.05549
4.28758
0.950462
2.1742
2.34836
1.00915
0.807278
0.846458
0.160917
0.175631
0.152287
0.144132
0.136251
0.093772
0.108842
0.135782
0.126223
0.13297
0.11788
0.0540691
0.0132374
0.0159671
0.0181441
0.0191697
0.0183053
0.0201915
0.0190878
0.035723
0.0213331
0.0111303
0.011381
0.0111104
0.0114983
0.0345325
0.0313811
0.0191778
0.0299594
0.00565232
0.00456227
0.00399316
0.00360694
0.00254179
0.00234579
295.335
279.106
300.209
301.375
305.473
305.599
313.735
317.657
303.555
296.871
315.979
302.28
308.496
299.688
274.62
283.277
308.454
299.276
300.617
310.985
301.778
307.565
297.81
295.58
302.857
301.713
282.228
293.514
261.099
270.652
280.788
274.738
283.293
305.539
277.054
289.587
283.521
310.458
311.454
271.976
258.31
261.046
205.243
171.132
247.783
251.498
243.042
272.776
212.318
264.418
243.169
238.346
208.796
228.845
202.675
141.255
266.802
251.287
235.481
210.018
224.858
209.553
251.928
85.8594
111.875
28.6852
28.1424
32.432
21.1467
22.9486
27.7623
32.3243
19.5222
41.3368
9.11806
13.0341
15.2207
2.50353
0.453691
0.283697
0.345039
0.303538
0.29031
0.302879
0.246224
0.207374
0.124816
0.148057
0.192649
0.300577
0.131225
0.243841
0.1876
0.407246
0.114791
0.131763
0.110872
0.119453
0.324839
0.306228
0.0925943
0.118548
0.110791
0.078771
0.0733566
0.0143225
0.014227
0.0212296
0.0187858
0.0208681
0.0200592
0.01772
0.0169253
0.0186635
0.0126701
0.0129157
0.0106236
0.00708197
0.0099571
0.00598847
0.023826
0.00541449
0.0047569
0.0045548
0.00359077
0.00349843
0.00299636
0.00398631
329.351
307.062
309.553
308.641
295.678
310.948
319.123
318.865
291.013
306.955
278.555
312.278
294.068
300.745
323.772
274.842
320.398
312.148
289.397
299.945
291.835
301.843
297.026
299.118
305.969
303.906
295.825
285.272
303.474
275.643
301.798
296.156
313.303
307.073
295.931
297.965
312.566
307.896
280.666
266.76
268.304
295.788
225.996
274.802
265.83
157.25
275.399
226.123
253.302
260.658
225.995
261.074
201.471
211.91
204.176
222.158
251.039
240.338
212.73
271.391
229.547
183.925
191.311
34.4459
173.173
188.253
103.893
124.332
156.374
166.981
99.8039
27.5216
184.405
23.0886
188.637
204.522
162.942
7.17133
7.255
2.00769
1.09845
0.675586
0.726824
0.192217
0.17922
0.225336
0.175199
0.104997
0.134049
0.181553
0.292066
0.314968
0.271064
0.462913
0.368892
0.105129
0.237198
0.249264
0.245272
0.296287
0.276103
0.0888733
0.0243763
0.0368829
0.00858454
0.00452101
0.00463186
0.0105589
0.0136546
0.0121992
0.013809
0.00666315
0.00581369
0.0104208
0.00945985
0.00759227
0.0063199
0.00705443
0.00508428
0.00482057
0.00445153
0.00480889
0.00407439
0.00446964
0.00385313
0.00414498
0.00410337
0.00351765
312.725
325.286
302.729
299.867
299.387
286.024
300.748
312.236
314.413
288.756
303.979
283.074
309.91
304.625
324.582
333.965
320.765
313.638
285.609
334.488
300.344
335.113
312.379
294.699
318.466
264.402
302.002
305.977
308.698
307.054
296.305
300.148
305.674
305.762
296.143
302.05
307.708
278.84
263.329
289.688
293.382
317.565
271.127
255.422
76.0738
157.328
236.584
237.972
266.226
278.327
265.248
230.64
207.333
193.783
212.749
233.885
238.72
243.537
262.695
275.892
176.069
113.784
29.1262
27.9267
16.5179
175.047
29.6964
107.566
31.4872
141.065
185.975
135.674
194.976
193.86
34.4656
165.154
1.02392
2.6906
1.90886
7.25232
1.50091
0.818359
0.851352
0.964821
0.746706
0.197651
0.155266
0.138312
0.348183
0.313507
0.527901
0.587703
0.778479
0.538522
0.472558
0.409529
0.392882
0.394306
0.387318
0.385073
0.375647
0.306263
0.291167
0.0287864
0.018562
0.0188688
0.0170088
0.0141409
0.0144
0.0105822
0.010873
0.0163326
0.0152367
0.014164
0.0131708
0.0118579
0.0105534
0.0106382
0.00958013
0.00825761
0.00408128
0.00652876
0.00569781
0.0189896
0.00565164
0.00417232
0.00386068
0.0022301
301.498
307.042
311.245
301.755
307.383
299.351
328.531
303.569
325.52
319.48
318.237
307.244
310.441
338.009
327.974
321.272
319.82
327.614
335.186
343.639
333.281
325.248
292.458
301.697
276.215
273.42
279.732
307.214
295.132
305.937
304.27
296.8
306.953
277.605
298.743
296.24
278.907
281.849
286.696
283.458
311.941
277.056
237.087
241.167
232.924
85.4518
233.97
287.705
281.324
256.734
236.282
177.197
193.222
176.455
228.426
210.523
234.939
229.165
266.969
241.211
36.7451
32.3717
35.3215
29.0484
24.3918
14.1957
177.387
30.8563
158.28
35.2541
170.803
200.39
110.529
181.692
123.607
18.0662
8.69477
0.594816
0.454682
0.329219
0.679589
0.978376
0.790247
0.869201
0.795926
0.711305
0.650507
0.340463
0.765522
0.637926
0.729651
0.730909
0.718965
0.745042
0.704408
0.724947
0.683624
0.325938
0.319757
0.300182
0.291989
0.279425
0.266549
0.194046
0.015359
0.0149512
0.0141081
0.0148205
0.0147557
0.0147201
0.0139026
0.0141559
0.0132935
0.0135554
0.0127164
0.0128495
0.0118601
0.0113634
0.010207
0.00972339
0.0105714
0.00401903
0.0131812
0.014899
0.00355262
0.00467336
0.00401664
0.00291194
305.388
341.144
318.506
318.131
308.921
314.551
333.943
336.817
308.156
324.881
319.763
316.849
332.245
352.717
318.114
328.763
325.982
342.889
343.152
334.634
324.41
286.325
293.153
302.163
269.638
333.881
283.719
337.712
312.577
286.128
260.84
311.096
286.652
267.883
302.326
264.383
283.425
281.054
285.003
275.882
283.515
244.423
243.782
252.454
237.56
270.9
277.714
267.97
245.145
144.592
190.139
130.729
140.92
202.974
203.092
202.955
224.408
218.839
242.515
209.054
51.6606
220.358
44.3041
211.556
223.304
206.345
145.839
179.973
181.058
146.086
14.92
12.7798
13.9445
15.4724
13.6048
12.2555
7.01006
0.572596
0.524505
0.55449
0.620575
0.688611
0.643414
0.665465
0.491933
0.379839
0.0530736
0.647495
0.63696
0.703335
0.684709
0.586226
0.582103
0.424509
0.305398
0.111945
0.190822
0.203064
0.190238
0.0237557
0.0209829
0.222877
0.209563
0.163981
0.0169764
0.0166542
0.0103182
0.0180565
0.0108378
0.0116416
0.0108376
0.0114783
0.0107682
0.0116055
0.0109566
0.0112725
0.0103872
0.00932503
0.00816814
0.00584111
0.00365061
0.00254099
0.00554959
0.00220026
0.00149924
0.000569896
0.000802236
0.00269954
338.63
335.866
315.314
337.909
308.672
338.386
338.399
323.809
310.598
311.951
325.317
325.119
352.5
334.679
324.213
324.496
336.892
346.87
331
301.367
280.302
305.296
300.996
347.207
332.483
364.935
336.531
354.083
266.63
289.327
140.1
237.259
270.888
217.202
268.246
277.594
285.686
260.18
278.848
265.313
254.525
242.687
258.58
220.583
266.152
218.527
258.096
194.881
90.6424
244.102
190.016
250.253
200.902
242.349
209.889
235.683
230.956
234.152
229.489
208.319
225.568
232.648
209.247
236.421
209.634
222.366
22.0599
19.4474
21.71
158.049
24.9354
20.5426
1.88059
1.75767
0.96157
1.97255
0.350482
0.808734
0.797804
0.546001
0.70551
0.613315
0.645097
0.636885
0.478642
0.457196
0.429006
0.0338925
0.142302
0.17495
0.231008
0.167033
0.1962
0.0159994
4.62913e-05
5.84217e-05
8.46703e-05
0.207813
0.189873
0.2422
0.236772
0.0419852
0.00513793
0.0126872
0.0103022
0.00573354
0.00575743
0.00642005
0.00651957
0.0115901
0.0111427
0.0092676
0.00866454
0.00936793
0.00884002
0.00845208
0.00771378
0.00818757
0.00719581
0.00619767
0.00474865
0.00296459
0.00135034
0.00184804
0.000859506
0.00137
0.000838403
0.00163559
333.729
348.995
335.003
353.298
337.108
338.724
321.878
327.659
310.726
332.748
326.877
337.411
341.669
330.891
328.961
325.126
349.967
264.41
298.545
313.532
301.529
337.702
342.323
340.87
357.958
365.718
342.79
337.293
192.838
217.18
106.959
107.621
74.1003
51.3301
36.8243
35.313
247.576
241.187
253.308
233.096
230.221
225.577
216.347
210.153
220.201
241.248
217.004
265.201
254.495
302.061
264.02
297.88
259.368
247.923
249.588
161.11
237.974
247.014
221.149
207.37
238.624
210.025
233.773
217.117
110.336
183.582
84.4239
26.1988
24.0135
17.4897
25.611
25.9665
180.917
2.58422
2.69819
2.16853
0.961281
0.258981
0.329171
0.59436
0.599709
0.715538
0.638888
0.656039
0.324149
0.533772
0.514073
0.456133
0.0400212
0.0424888
0.0375548
0.0338317
0.0286299
0.0208663
0.0175843
0.00062995
6.61515e-05
9.61112e-05
0.00124005
0.000910141
0.00246425
0.0140376
0.0109664
0.0148148
0.0129911
0.00288285
0.002279
0.00183692
0.00195064
0.00886686
0.00938152
0.00482045
0.00364445
0.00292153
0.00333749
0.00280184
0.00278669
0.00333869
0.0029848
0.00579984
0.00547605
0.00612627
0.00303687
0.00138658
0.0003297
0.000267301
0.000326555
0.000332313
346.235
358.798
350.427
338.267
332.545
326.987
319.225
333.611
324.264
357.466
333.944
350.163
330.671
331.083
325.15
295.757
291.598
281.096
322.091
326.291
339.814
285.088
335.114
298.783
352.649
332.656
312.762
324.154
170.372
77.8232
103.746
103.441
60.5467
70.7033
34.9469
32.0713
72.5348
53.197
231.209
214.21
225.333
254.32
216.436
265.283
245.432
276.489
267.11
277.332
297.866
299.857
288.932
290.464
233.6
215.51
127.771
190.774
242.033
219.929
195.185
187.039
203.167
203.466
214.695
196.289
167.935
107.772
214.303
176.121
170.195
191.899
152.65
118.04
209.32
195.556
7.07225
2.98208
0.656877
0.503119
0.547689
0.599989
0.547276
0.590512
0.457109
0.595894
0.197237
0.206991
0.312891
0.444798
0.0506117
0.0370229
0.00721087
0.00686024
0.00402857
0.0058566
0.00555874
0.00520066
2.31232e-63
2.38911e-63
0.000163138
6.73632e-05
0.000100682
0.0170735
0.0169945
0.00394652
0.00643671
0.00228229
0.00144479
0.00139705
0.000861686
0.00151024
0.00047524
0.0041835
0.00320019
0.00201556
0.00232894
0.00294374
0.00278732
0.00284713
0.00256587
0.00305734
0.00296882
0.00653981
0.00536521
0.00171787
0.00150772
0.000355543
0.00162182
0.00220022
354.707
337.07
329.48
340.507
322.67
332.818
328.677
338.395
349.414
345.176
338.837
345.063
318.982
316.556
269.593
279.581
296.172
279.687
313.979
285.562
272.463
272.107
299.391
287.516
287.306
322.491
264.735
298.955
186.559
121.576
123.275
107.861
83.6379
56.3874
58.9237
48.2487
82.6051
86.0346
73.2138
262.135
258.129
285.617
267.17
276.597
275.147
271.525
273.68
266.218
295.234
258.63
278.566
255.88
172.55
234.111
126.907
183.839
201.27
172.61
143.319
220.285
188.895
190.626
182.511
181.868
211.747
170.159
223.834
213.318
145.188
133.604
97.7883
123.207
130.473
178.716
159.421
8.48035
4.62379
0.723606
0.538686
0.156728
0.27059
0.427723
0.278115
0.325047
0.299819
0.187643
0.47641
0.20276
0.402123
0.0559589
0.00635151
0.00518862
0.0047511
0.00468924
0.00353726
0.00396523
0.000606822
0.000403374
5.45413e-06
1.21271e-05
8.95834e-06
3.99675e-05
0.000152826
0.0001923
0.000198362
0.00691753
0.00189362
0.001413
0.000184491
0.000614966
4.86013e-05
0.00014701
0.000130786
0.00300768
0.00289714
0.00304839
0.00310124
0.00197801
0.00150003
0.000430002
0.000390953
0.000412342
0.000132797
0.00152552
0.00113682
0.000276298
0.00018807
0.000272301
340.194
319.325
336.476
343.572
327.655
326.407
298.539
321.795
312.036
324.509
322.689
330.777
291.449
331.347
311.916
265.66
309.283
299.252
296.986
291.648
273.951
277.913
268.999
288.853
248.318
278.043
245.099
274.088
254.684
239.756
260.143
195.916
260.905
275.406
253.484
247.912
275.695
177.59
258.362
291.724
283.588
287.642
273.46
266.17
267.533
266.647
263.126
269.397
264.89
268.384
267.694
258.015
239.771
190.83
173.805
177.203
168.844
220.089
216.464
233.284
189.24
226.121
189.401
193.851
181.077
209.833
35.8647
187.455
114.909
5.11647
4.63701
2.3826
2.65636
2.19453
3.58658
3.233
0
0.068222
0.103495
0.0987269
0.0541182
0.0583086
0.0478797
0.0946047
0.0968097
0.203739
0.338319
0.413619
1.32544e-33
4.74035e-34
0.000411772
0.000419916
0.000118844
0.000363305
4.46839e-05
6.76772e-05
4.77224e-05
1.80689e-05
2.40742e-05
2.9621e-06
1.13066e-05
9.5673e-06
1.38239e-05
1.51717e-05
1.57363e-05
0.00156044
0.000194704
9.6756e-05
0.000195143
0.000190481
0.000210059
0.000171555
0.000199303
0.000110229
0.00193819
0.00180512
0.00207392
0.00261937
0.00218591
0.000575123
0.000253647
0.00039504
0.000334173
0.00114924
0.00110672
0.00108972
4.27325e-05
6.97168e-05
317.402
323.913
345.217
315.563
320.913
334.553
298.694
296.76
321.473
320.544
342.497
341.639
334.893
341.616
318.376
333.42
308.098
352.5
304.764
338.354
226.824
279.019
202.437
262.562
246.46
248.921
277.751
263.132
296.443
284.369
284.937
297.167
275.111
282.279
275.483
290.375
294.66
302.121
292.668
282.887
286.307
280.975
264.772
289.054
269.866
276.115
272.875
252.568
267.81
232.102
252.926
246.074
188.435
233.104
186.28
234.827
226.16
239.03
238.07
226.383
224.343
223.897
189.833
193.055
166.143
172.981
19.9853
18.6847
11.6638
5.435
2.44003
3.88114
2.18731
3.00727
0.257098
1.00848
0.180521
0.164847
0.00915827
0.0889519
0.0484343
0.0554895
0.064268
0.0383368
0.053687
0.0494399
0.0344717
0.0629727
1.49486e-09
2.51828e-07
1.14633e-05
4.57569e-05
6.54019e-05
8.16126e-05
1.10059e-45
7.39482e-46
1.1731e-45
2.29048e-05
3.01516e-06
7.9537e-07
7.37194e-06
1.03266e-05
1.1536e-05
1.23542e-05
1.28164e-05
1.37594e-05
1.28215e-05
0.000400051
0.00140876
0.000259949
0.000173675
0.000204033
0.000181483
0.000193635
0.00121166
0.00151689
0.00174498
0.00186498
0.00188312
0.00161643
0.000216212
0.000221709
0.000216254
0.000282788
0.000945917
0.000134001
0.00013218
7.89928e-05
315.375
313.337
312.556
320.009
334.924
334.793
299.306
330.769