# vtk DataFile Version 3.0
vtk output
ASCII
DATASET POLYDATA
POINTS 24578 float
-151.53 81.83 75.23
-146.76 79.98 77.9
-147.26 82.51 76.57
-151.22 79.35 76.36
-146.3 77.32 78.47
-150.76 76.75 77.01
-146.01 74.82 79.56
-150.4 74.19 77.98
-145.43 72.07 79.86
-149.95 71.56 78.66
-145.02 69.6 80.58
-149.55 69.11 79.46
-144.64 67.21 81.53
-149.14 66.64 80.2
-144.27 64.77 82.34
-148.68 64.12 80.8
-144.06 62.18 83.1
-148.26 61.63 81.51
-143.83 59.57 83.96
-148.2 59.14 82.73
-143.54 56.98 84.63
-148.02 56.58 83.6
-143.3 54.28 84.95
-147.52 53.77 83.62
-142.71 51.53 84.98
-147.03 50.98 83.68
-142.34 49.05 85.71
-146.66 48.52 84.06
-142.24 46.57 86.6
-146.26 46.05 84.34
-145.97 43.63 84.94
-141.82 44.09 87.11
-141.56 41.44 87.04
-145.67 41.21 85.5
-140.98 38.76 87.5
-145.29 38.66 85.7
-140.75 36.16 87.85
-144.89 36.1 85.85
-144.62 33.53 86.3
-140.46 33.57 88.45
-140.13 30.94 88.56
-144.22 30.94 86.41
-143.81 28.2 86.49
-139.84 28.2 88.9
-143.44 25.45 86.68
-139.6 25.51 89.44
-143.18 22.67 87.12
-139.22 22.78 89.44
-142.9 19.88 87.51
-138.79 20.04 89.71
-142.6 17.15 87.83
-138.39 17.32 89.75
-137.91 14.61 89.73
-142.25 14.42 88.03
-141.99 11.68 88.46
-137.6 11.89 89.94
-141.61 8.95 88.57
-137.22 9.16 90.05
-141.13 6.27 88.48
-136.86 6.45 90.3
-140.68 3.58 88.47
-136.37 3.76 90.16
-140.25 0.89 88.51
-135.88 1.07 90.03
-139.71 -1.79 88.26
-135.64 -1.76 90.02
-135.64 -4.55 89.75
-140 -4.44 88.09
-135.69 -7.09 89
-140.34 -7.12 88.03
-135.79 -9.62 88.23
-140.37 -9.69 87.25
-135.84 -12.19 87.54
-140.43 -12.27 86.54
-135.99 -14.75 87
-140.5 -14.79 85.8
-136.21 -17.35 86.64
-140.62 -17.33 85.19
-136.42 -19.93 86.21
-140.85 -19.94 84.82
-136.49 -22.42 85.34
-140.79 -22.34 83.7
-136.45 -24.91 84.43
-140.78 -24.79 82.73
-136.55 -27.44 83.74
-140.84 -27.3 81.99
-136.57 -29.97 82.98
-140.97 -29.86 81.42
-136.73 -32.54 82.43
-141.02 -32.36 80.63
-136.76 -35.12 81.64
-141.09 -34.97 79.94
-141.32 -37.69 79.69
-136.83 -37.72 80.96
-141.45 -40.33 79.13
-136.9 -40.34 80.32
-137.11 -43 79.41
-141.48 -42.91 78.35
-141.57 -45.38 77.61
-137.04 -45.54 78.64
-141.59 -47.8 76.7
-137.03 -47.91 77.56
-141.86 -50.43 76.49
-137.15 -50.39 76.9
-141.9 -52.84 75.63
-137.27 -52.84 76.11
-141.91 -55.11 74.4
-137.53 -55.19 75.26
-137.48 -57.49 74.21
-141.9 -57.35 73.07
-142.03 -59.74 72.14
-137.7 -59.92 73.43
-142.25 -62.22 71.44
-137.97 -62.48 72.92
-142.57 -64.67 70.67
-138.15 -65.14 72.4
-142.87 -67.1 69.86
-138.34 -67.41 71.12
-143.16 -69.56 69.09
-138.58 -69.8 70.17
-143.42 -71.97 68.22
-138.72 -72 68.84
-143.42 -74.03 66.78
-138.71 -74.17 67.59
-143.52 -76.26 65.69
-138.9 -76.5 66.65
-143.64 -78.59 64.8
-139.03 -78.91 65.88
-143.64 -80.66 63.43
-139.36 -81.09 64.3
-142.41 80.53 78.87
-142.88 83.09 77.59
-141.83 77.87 79.86
-141.49 75.33 80.8
-140.97 72.61 81.19
-140.47 70.13 81.77
-140.01 67.69 82.47
-139.94 65.21 83.59
-139.84 62.72 84.64
-139.44 60.04 85.13
-139.12 57.42 85.86
-138.88 54.8 86.42
-138.56 52.14 86.78
-138.19 49.56 87.25
-137.83 46.99 87.76
-137.58 44.31 88.01
-137.31 41.63 88.23
-137.03 38.95 89.21
-136.57 36.22 89.77
-136.22 33.57 90.06
-135.88 30.91 90.36
-135.74 28.24 91.1
-135.47 25.56 91.56
-134.94 22.88 91.41
-134.47 20.19 91.43
-134.08 17.49 91.57
-133.61 14.8 91.52
-133.09 12.1 91.2
-132.71 9.37 91.23
-132.3 6.67 91.32
-131.94 3.96 91.53
-131.76 1.11 91.67
-131.5 -1.71 91.62
-131.31 -4.41 90.89
-131.1 -7.09 90.13
-131.35 -9.7 89.79
-131.55 -12.29 89.33
-131.63 -14.81 88.62
-131.74 -17.34 87.96
-131.85 -19.85 87.19
-132.06 -22.42 86.66
-132.19 -25.02 86.17
-132.25 -27.57 85.48
-132.26 -30.09 84.65
-132.44 -32.72 84.26
-132.56 -35.36 83.72
-132.63 -37.97 83.04
-132.75 -40.58 81.94
-132.83 -43.16 80.72
-132.77 -45.71 79.94
-132.75 -48.3 79.25
-132.77 -50.64 78.12
-132.8 -52.99 77
-132.95 -55.32 76.2
-133.13 -57.69 75.53
-133.33 -60.11 74.69
-133.5 -62.48 73.72
-133.64 -65.09 73
-133.72 -67.59 72.04
-133.86 -69.81 70.74
-134.01 -72.03 69.43
-134.18 -74.44 68.63
-134.35 -76.86 67.84
-134.77 -79.33 66.76
-135.07 -81.54 65.2
-138.04 81.11 79.93
-138.51 83.66 78.64
-137.48 78.45 80.95
-136.81 75.7 81.58
-136.53 73.2 82.68
-136.2 70.85 83.66
-136.01 68.35 84.53
-135.78 65.76 85.17
-135.49 63.19 85.82
-135.19 60.56 86.38
-134.98 57.99 87.45
-134.76 55.37 88.25
-134.53 52.77 88.88
-134 50.11 89.1
-133.65 47.3 89.03
-133.3 44.56 89.42
-133.29 41.92 90.17
-132.89 39.2 91
-132.5 36.43 91.58
-132.05 33.68 92.21
-131.7 30.98 92.36
-131.44 28.31 92.66
-131.04 25.67 93.02
-130.62 23.02 93.01
-130.15 20.36 93.11
-129.82 17.66 93.35
-129.27 14.97 93.05
-128.74 12.27 92.73
-128.4 9.55 92.87
-127.96 6.85 92.86
-127.84 4 93.22
-127.59 1.17 93.17
-127.27 -1.64 92.97
-127.25 -4.36 92.57
-127.15 -7.08 92.07
-127.17 -9.83 91.83
-127.29 -12.38 91.16
-127.29 -14.86 90.23
-127.44 -17.42 89.6
-127.57 -19.97 88.96
-127.76 -22.53 88.35
-127.82 -25.1 87.72
-127.85 -27.64 86.95
-127.95 -30.27 86.46
-128.2 -32.95 86.24
-128.25 -35.54 85.49
-128.5 -38.26 84.8
-128.59 -40.83 83.55
-128.62 -43.36 82.3
-128.5 -45.86 81.36
-128.57 -48.51 80.64
-128.51 -50.96 79.6
-128.63 -53.39 78.68
-128.82 -55.89 78.24
-129.15 -58.39 77.85
-129.06 -60.46 76.29
-128.99 -62.4 74.44
-128.98 -64.79 73.19
-129.01 -67.15 71.96
-128.97 -69.58 70.84
-129.28 -72.05 69.98
-129.48 -74.55 69.36
-130.01 -77.21 68.65
-130.42 -79.71 67.63
-130.79 -82.03 66.21
-133.82 81.84 81.46
-134.36 84.47 80.38
-133.19 79.09 82.22
-132.49 76.28 82.7
-131.95 73.65 83.71
-131.93 71.29 85
-131.87 68.9 86.17
-131.5 66.27 86.57
-131.13 63.64 86.94
-130.87 61.02 87.58
-130.68 58.45 88.47
-130.46 55.86 89.34
-130.18 53.24 90.02
-129.88 50.44 90.31
-129.64 47.69 90.79
-129.42 44.94 91.36
-129.23 42.2 92.03
-128.71 39.37 92.41
-128.45 36.65 93.48
-128.03 33.86 94.03
-127.47 31.03 94.24
-127.19 28.41 94.71
-126.88 25.78 95.12
-126.32 23.16 94.88
-125.8 20.53 94.74
-125.36 17.84 94.64
-124.86 15.16 94.43
-124.49 12.44 94.52
-124.2 9.71 94.8
-123.95 6.88 94.78
-123.68 4.05 94.73
-123.4 1.23 94.62
-123.18 -1.6 94.69
-123.37 -4.41 94.84
-123.31 -7.12 94.32
-123.16 -9.79 93.63
-122.95 -12.42 92.76
-123.09 -14.99 92.12
-123.27 -17.57 91.56
-123.4 -20.13 90.9
-123.5 -22.66 90.14
-123.53 -25.22 89.42
-123.57 -27.78 88.7
-123.68 -30.42 88.22
-123.74 -33.02 87.62
-123.94 -35.69 86.77
-124.14 -38.36 85.91
-124.27 -40.96 84.88
-124.51 -43.67 84.17
-124.44 -46.18 83.04
-124.36 -48.68 81.9
-124.32 -51.14 80.87
-124.34 -53.66 80.01
-124.65 -56.22 79.72
-124.85 -58.64 79.12
-124.76 -60.62 77.46
-124.57 -62.46 75.52
-124.49 -64.69 73.94
-124.51 -67.1 72.74
-124.57 -69.65 71.8
-124.65 -72.26 70.99
-125.14 -74.86 70.13
-125.57 -77.36 69.04
-126.01 -79.84 67.96
-126.39 -82.16 66.58
-129.58 82.52 82.46
-130.23 85.32 82
-128.9 79.77 83.09
-128.4 77.11 83.84
-127.98 74.41 84.96
-127.56 71.77 85.9
-127.33 69.24 86.57
-127.15 66.76 87.43
-126.86 64.14 88.01
-126.52 61.49 88.81
-126.36 58.96 89.84
-126.14 56.38 90.8
-125.97 53.53 91.15
-125.51 50.64 91.5
-125.42 47.93 92.31
-125.22 45.19 93.14
-125.05 42.45 93.81
-124.64 39.66 94.38
-124.31 36.88 95.2
-123.77 34.05 95.42
-123.26 31.23 95.69
-122.78 28.52 96.11
-122.44 25.87 96.38
-121.98 23.27 96.26
-121.42 20.65 96.06
-121.04 17.96 96.08
-120.68 15.29 96.36
-120.38 12.57 96.56
-120.17 9.75 96.72
-119.91 6.93 96.66
-119.55 4.12 96.37
-119.27 1.3 96.28
-119.07 -1.54 96.32
-119.25 -4.36 96.51
-119.22 -7.1 96.08
-119.04 -9.77 95.31
-119 -12.5 94.8
-118.91 -15.21 94.19
-119.08 -17.79 93.59
-119.2 -20.38 92.98
-119.3 -22.91 92.18
-119.31 -25.47 91.43
-119.31 -28 90.63
-119.33 -30.55 89.87
-119.45 -33.15 88.84
-119.6 -35.8 87.91
-119.83 -38.5 87.17
-120.05 -41.2 86.43
-120.26 -43.87 85.57
-120.32 -46.42 84.63
-120.24 -48.94 83.59
-120.24 -51.46 82.7
-120.29 -53.99 81.83
-120.1 -56.26 80.6
-120.22 -58.48 79.45
-120.33 -60.66 78.2
-120.24 -62.81 76.84
-120.26 -65.2 75.6
-120.18 -67.48 74.2
-120.23 -70.02 73.25
-120.52 -72.67 72.16
-120.81 -75.19 70.96
-121.18 -77.58 69.65
-121.52 -79.9 68.24
-121.92 -82.27 66.97
-125.25 83.17 83.41
-125.88 85.88 82.84
-124.6 80.45 83.94
-124.22 77.72 84.75
-123.94 75.09 85.93
-123.46 72.43 86.81
-122.93 69.71 87.46
-122.73 67.14 88.15
-122.59 64.64 89.06
-122.25 62 89.9
-121.95 59.4 90.9
-121.96 56.7 91.92
-121.73 53.8 92.2
-121.47 50.99 93.04
-121.27 48.22 94.07
-121.07 45.45 94.8
-120.88 42.69 95.58
-120.53 39.9 96.26
-120.06 37.06 96.59
-119.52 34.23 96.77
-119.19 31.45 97.53
-118.64 28.71 97.7
-118.07 25.97 97.81
-117.65 23.36 97.86
-117.2 20.75 97.82
-116.76 18.09 97.81
-116.45 15.42 98.16
-116.25 12.62 98.27
-115.94 9.82 98.09
-115.72 7.01 98.16
-115.43 4.19 98.08
-115.24 1.34 98.13
-115.02 -1.5 98.11
-115.03 -4.27 97.86
-115.05 -7.04 97.62
-115.01 -9.78 97.12
-114.91 -12.5 96.46
-114.83 -15.21 95.87
-114.79 -17.94 95.36
-114.95 -20.55 94.79
-115.09 -23.14 94.17
-115.09 -25.69 93.41
-115.09 -28.25 92.66
-115.19 -30.82 91.55
-115.34 -33.43 90.58
-115.56 -36.16 89.86
-115.65 -38.76 88.81
-115.73 -41.32 87.6
-115.89 -43.96 86.62
-115.94 -46.5 85.75
-115.97 -49.02 84.82
-116.06 -51.62 84.1
-116.16 -54.22 83.41
-116 -56.46 81.98
-115.78 -58.59 80.34
-115.73 -60.7 78.9
-115.82 -63.01 77.89
-115.91 -65.56 77.02
-115.85 -67.86 75.66
-116.07 -70.39 74.35
-116.45 -73.24 73.66
-116.73 -75.78 72.45
-116.87 -78.01 70.66
-117.13 -80.1 68.85
-117.46 -82.37 67.36
-120.93 83.58 83.84
-121.35 86.18 83.25
-120.43 80.92 84.76
-120.24 78.29 85.68
-119.85 75.73 86.84
-119.39 73.08 87.68
-118.97 70.39 88.56
-118.52 67.71 89.38
-118.27 65.1 89.93
-117.89 62.43 90.71
-117.77 59.68 91.68
-117.62 56.89 92.64
-117.53 54.11 93.38
-117.25 51.28 94.27
-116.99 48.44 95.07
-116.61 45.56 95.63
-116.37 42.76 96.18
-116.01 39.98 96.85
-115.62 37.17 97.41
-115.23 34.39 98.02
-114.97 31.62 98.96
-114.53 28.91 99.33
-113.9 26.15 99.26
-113.4 23.47 99.53
-113.04 20.85 99.72
-112.61 18.2 99.71
-112.34 15.45 99.77
-112.11 12.66 99.75
-111.7 9.9 99.43
-111.54 7.08 99.65
-111.31 4.26 99.65
-111.1 1.42 99.6
-110.91 -1.42 99.76
-110.84 -4.17 99.3
-110.76 -6.92 98.71
-110.8 -9.71 98.47
-110.76 -12.46 97.96
-110.67 -15.19 97.39
-110.65 -17.93 96.92
-110.56 -20.62 96.27
-110.66 -23.19 95.59
[...]
CELL_DATA 49152
SCALARS Temperature float 1
LOOKUP_TABLE default
317.191
318.757
306.799
305.506
315.197
317.576
301.803
295.297
297.278
295.736
299.598
303.148
305.126
308.65
313.498
315.234
318.657
310.259
298.336
293.358
278.41
286.086
285.95
284.644
304.864
308.865
321.034
329.042
335.661
328.38
319.05
311.358
306.196
309.068
312.748
317.297
322.78
328.196
321.206
321.776
321.52
334.353
332.194
346.459
345.281
326.795
333.104
324.939
326.751
311.272
309.495
305.478
310.422
296.628
293.662
293.667
287.705
311.469
305.303
296.37
301.233
288.59
284.93
308.648
305.577
301.134
285.803
264.462
232.996
233.322
238.162
238.562
247.165
254.296
270.287
277.51
283.831
282.156
263.399
271.159
279.153
280.466
290.046
291.426
290.625
285.781
286.589
292.733
293.133
290.977
302.268
263.653
268.343
258.55
249.982
247.726
248.605
242.963
236.686
206.022
252.802
150.035
95.8104
155.095
100.762
224.672
207.7
224.131
247.262
267.077
269.999
288.178
281.589
297.887
292.331
243.698
264.595
241.704
245.308
68.7165
77.9096
68.5714
190.688
229.252
230.84
249.202
213.975
206.502
303.051
301.942
293.797
300.787
309.489
306.488
288.825
290.788
299.424
296.923
296.618
291.814
296.639
302.937
308.62
314.959
308.196
300.504
296.957
297.761
295.563
299.823
300.303
306.083
318.352
315.152
310.249
302.314
284.348
278.724
271.03
279.201
290.437
323.716
315.27
319.625
321.432
304.922
302.032
311.929
312.806
332.471
329.715
326.04
314.382
311.527
315.923
301.497
304.78
306.309
303.703
303.322
296.149
285.758
280.008
278.232
282.3
268.118
259.235
291.166
280.822
306.41
303.078
300.144
283.975
270.585
250.146
248.616
266.485
278.585
288.381
294.241
293.723
289.783
285.979
278.146
262.938
251.383
247.173
259.288
274.031
285.288
292.602
292.418
287.972
286.374
297.517
300.907
300.972
306.238
308.956
309.04
301.003
292.578
278.064
266.865
267.193
266.865
255.332
292.948
294.114
247.838
261.666
213.194
229.075
232.768
215.91
271.63
268.873
262.277
274.07
202.73
234.766
193.787
68.9734
224.018
224.122
70.2097
74.4454
76.1887
84.524
245.727
239.401
258.674
258.826
235.151
207.579
212.892
304.551
304.64
298.416
299.036
290.015
280.635
284.882
300.514
315.415
321.273
328.638
331.938
332.517
324.702
314.997
306.387
294.146
296.173
309.845
316.491
318.382
321.873
323.197
326.764
321.861
318.961
307.65
298.37
295.17
297.066
308.43
320.354
330.39
321.192
316.875
319.005
314.945
327.347
324
317.082
326.197
303.041
305.647
297.688
289.045
292.177
298.72
299.972
303.329
310.277
296.386
291.991
284.429
284.503
294.879
302.592
300.836
293.904
299.603
312.682
308.54
295.483
295.385
283.384
280.409
289.251
296.215
301.93
315.373
315.415
307.346
303.168
288.901
283.94
287.207
288.192
289.056
291.996
296.992
295.268
291.288
287.733
278.752
276.577
283.162
292.066
303.722
314.707
302.768
298.186
296.41
298.399
285.525
281.261
275.511
273.767
283.928
267.395
276.906
278.305
265.887
269.158
277.041
284.355
292.893
316.018
312.147
328.862
303.312
287.087
240.601
184.442
211.706
90.5378
90.9637
99.1627
96.8378
92.3936
91.2494
81.0834
168.194
218.97
206.806
239.941
223.117
233.061
201.383
235.437
326.958
323.485
312.468
307.969
294.726
291.794
301.902
297.773
303.287
310.72
314.606
321.589
311.278
306.695
299.56
293.78
293.466
295.418
303.336
299.72
295.331
296.989
293.891
294.52
284.598
287.373
295.599
307.536
320.446
324.507
332.186
323.718
324.53
299.16
303.575
328.744
322.428
319.231
313.406
311.774
315.378
322.822
320.33
324.409
310.583
307.117
303.178
299.548
295.095
288.197
274.089
276.143
288.909
297.229
309.136
317.297
310.64
315.086
321.777
295.996
296.132
291.475
289.193
308.453
312.635
323.915
321.341
321.453
317.19
309.273
290.885
285.094
286.341
293.277
304.501
305.99
305.061
304.797
301.725
298.247
294.014
292.009
289.561
290.834
298.887
299.318
306.086
273.492
267.61
266.693
265.483
258.424
243.563
252.845
273.18
290.175
291.634
288.434
284.22
269.853
256.76
257.529
263.406
269.13
281.305
295.604
293.353
272.444
216.638
208.891
157.811
124.826
191.934
83.9944
85.8551
91.4274
82.5145
81.3236
76.5437
78.5188
248.457
228.975
235.309
70.7434
77.2924
69.0854
55.0905
54.7203
310.606
301.345
287.653
284.931
286.144
292.613
310.735
312.935
312.516
301.44
285.051
270.102
258.798
273.347
279.609
284.871
295.851
298.489
307.036
310.11
310.979
312.616
301.892
294.972
285.839
285.955
297.788
306.539
308.193
321.083
319.03
319.394
313.018
324.129
331.002
318.811
314.475
292.989
294.34
296.058
303.701
295.946
296.951
287.06
275.829
279.058
280.356
278.795
284.612
287.474
284.444
317.086
313.508
320.491
321.847
317.816
314.592
312.225
307.134
301.996
300.632
301.872
305.465
304.203
308.901
310.816
296.886
298.936
291.148
289.437
295.606
303.492
310.869
310.08
311.088
310.388
308.845
309.687
306.431
305.843
305.281
304.684
302.501
300.79
299.641
293.403
278.981
268.076
258.903
255.029
259.429
264.028
268.133
278.586
284.159
279.361
269.988
276.861
279.312
281.949
289.276
293.183
298.341
298.6
312.011
183.256
235.216
84.3186
87.1286
91.8933
119.759
207.243
255.739
269.048
274.731
267.016
275.889
274.362
278.614
262.088
268.92
219.558
225.049
159.608
185.76
63.1186
61.1992
59.483
276.074
278.829
281.433
279.716
287.178
288.65
300.168
302.745
297.22
295.591
286.796
283.883
284.41
279.463
280.814
290.227
295.883
296.813
301.4
299.41
298.835
300.763
285.595
282.989
293.135
306.801
317.159
323.617
321.374
316.508
315.959
320.327
316.195
322.304
324.153
295.91
292.361
291.488
293.144
323.04
317.092
301.814
305.622
290.359
290.003
293.453
295.517
298.962
305.619
302.304
308.888
313.615
310.834
308.124
301.844
293.624
288.203
297.896
294.119
299.134
304.031
313.888
313.64
309.961
307.714
296.252
284.931
290.014
288.096
294.857
298.773
295.44
292.885
293.37
296.418
297.056
297.761
298.943
298.912
302.684
302.612
302.345
302.228
303.164
297.784
292.056
288.889
290.695
299.05
304.639
301.398
292.778
278.837
261.919
252.351
246.566
242.865
245.354
245.025
250.164
256.843
277.837
272.483
289.838
260.082
254.918
233.817
203.858
86.0986
81.2732
91.0778
236.131
226.488
274.797
255.516
257.743
275.42
246.961
256.007
294.35
282.776
282.338
263.857
237.3
206.965
58.0965
60.2595
58.1472
246.334
248.728
262.587
275.235
288.755
293.51
302.131
301.645
292.632
291.962
292.159
297.686
302.535
302.997
299.426
290.688
284.892
282.964
286.407
285.101
283.65
279.569
272.646
288.467
300.362
301.35
304.657
288.686
283.111
275.856
271.578
262.584
259.074
258.457
254.938
263.848
259.601
295.659
298.481
309.434
294.087
308.682
302.302
289.148
293.794
305.717
299.547
314.598
310.217
310.375
317.964
303.104
304.553
295.836
287.657
283.371
290.081
301.131
293.886
300.437
301.734
294.901
295.5
307.158
294.967
289.675
279.572
268.82
268.971
277.376
277.15
281.566
284.283
284.753
288.689
289.771
285.374
281.886
277.948
276.021
269.559
269.285
273.076
275.975
274.204
281.512
286.18
286.554
293.925
294.446
279.292
273.745
260.331
251.647
260.11
258.549
259.65
259.288
254.618
252.675
261.64
252.848
257.083
240.164
215.728
232.266
226.423
233.376
255.109
262.786
275.06
270.621
276.579
232.709
222.77
222.891
224.356
208.682
241.591
222.588
192.31
254.075
192.594
167.542
144.192
119.119
49.6165
59.2239
263.106
270.633
278.188
277.455
279.199
278.98
282.603
280.255
273.349
276.634
285.089
292.01
294.43
297.952
289.695
286.984
295.511
299.795
300.244
294.1
291.144
287.334
284.166
285.273
287.683
288.159
282.505
276.281
266.914
262.132
265.71
268.493
271.005
290.662
282.63
291.878
290.325
310.242
310.381
281.307
277.964
279.672
269.598
273.26
283.744
285.679
283.849
299.205
289.13
308.614
305.24
303.489
299.95
296.823
293.743
298.769
311.308
304.143
301.695
293.724
295.525
290.886
297.064
262.961
263.378
269.314
271.477
277.202
285.171
282.28
276.594
279.319
284.794
291.568
301.244
307.203
303.303
303.98
291.536
282.338
276.044
273.976
273.376
268.405
263.944
264.987
261.715
260.844
265.209
258.917
237.826
241.253
243.67
254.198
271.783
272.957
273.536
272.257
267.03
265.536
267.86
262.978
262.036
236.87
237.227
247.204
244.845
257.987
275.804
280.449
275.004
266.658
258.072
247.829
242.121
244.334
230.181
202.401
241.5
89.5458
91.8744
101.901
97.5707
86.2428
85.3604
64.8096
161.552
259.845
299.012
310.606
311.331
311.768
307.791
302.555
305.34
305.457
295.846
289.464
279.604
262.906
253.514
249.048
262.593
290.064
303.329
308.323
302.741
297.951
296.042
290.811
289.925
288.252
290.643
291.171
288.936
292.877
298.133
307.81
314.049
316.392
320.347
315.904
313.241
314.571
318.102
314.69
308.062
300.056
300.436
316.588
303.493
322.902
321.219
291.361
307.13
283.663
288.21
292.065
286.393
301.012
293.154
295.833
295.106
299.966
303.737
299.485
296.304
317.444
311.604
301.074
301.672
287.361
292.26
290.537
286.74
286.166
287.386
286.516
284.158
284.202
287.892
288.907
289.973
287.666
284.044
291.519
288.087
296.244
300.716
297.89
287.121
274.571
272.97
271.046
269.208
271.47
272.851
269.411
257.719
258.487
265.351
272.016
272.127
264.566
264.308
264.449
263.061
265.404
272.93
276.206
270.463
267.386
250.498
233.568
216.705
261.777
253.63
248.073
224.106
211.671
218.504
225.796
227.49
223.104
206.017
209.532
230.211
236.555
64.9644
80.6875
70.8439
79.3236
70.7844
75.614
231.077
216.499
284.677
275.534
263.846
265.551
265.438
272.146
278.093
271.961
273.089
285.813
291.391
298.645
307.094
309.703
315.516
309.016
304.615
297.531
289.552
328.995
321.545
344.245
339.392
329.485
334.678
303.632
311.994
314.881
315.365
314.271
311.596
309.747
311.086
311.2
308.629
312.728
314.083
293.894
290.28
306.798
307.742
324.598
314.215
306.768
293.481
291.709
299.383
299.844
304.537
310.94
308.429
293.84
291.093
287.746
289.63
296.531
297.189
299.062
302.057
308.595
296.523
290.613
288.256
288.403
293.149
293.04
289.024
287.134
285.874
282.828
285.64
289.569
293.16
293.309
285.694
278.003
257.75
234.225
229.786
248.806
260.114
278.312
274.253
279.089
287.307
283.752
283.932
284.071
280.91
278.648
278.157
283.729
287.241
286.099
283.842
287.328
292.683
292.674
291.357
290.959
287.072
279.32
270.871
271.646
264.59
269.039
284.039
258.206
252.58
245.729
240.557
259.34
265.441
260.487
254.931
249.214
246.429
255.816
261.356
249.664
244.822
297.667
287.369
312.946
292.993
262.917
234.672
170.123
250.129
244.438
247.28
255.184
258.38
263.869
277.351
291.102
299.375
302.599
302.17
307.777
308.907
332.742
330.196
325.04
324.77
330.969
332.681
339.655
337.342
331.429
324.004
329.335
324.14
324.714
326.219
318.353
315.605
310.674
310.303
312.952
315.384
295.712
300.929
299.101
294.102
296.103
297.269
294.995
302.891
273.548
262.588
264.995
263.274
282.125
293.229
319.098
317.761
305.535
302.316
285.921
287.274
283.775
289.05
283.033
286.241
283.94
290.37
276.582
261.257
270.401
264.625
277.308
281.428
284.846
286.337
291.617
294.187
295.919
297.826
294.651
289.883
285.473
282.412
287.799
284.063
288.446
285.477
266.636
262.695
262.05
260.21
280.19
285.452
286.841
289.695
288.705
285.315
285.087
286.706
286.554
285.323
286.377
287.322
289.166
285.477
280.268
276.89
275.06
269.05
267.91
264.224
259.776
255.637
259.699
263.603
264.762
259.941
259.579
260.949
261.551
256.645
257.774
257.241
258.976
260.119
260.108
261.672
264.93
281.413
224.145
240.449
254.264
225.758
253.484
237.667
196.956
275.126
316.797
308.435
308.175
305.059
303.012
310.515
313.605
303.672
293.798
291.987
294.092
299.648
324.083
313.746
323.135
322.571
337.48
337.498
330.131
327.718
299.203
301.024
307.73
301.737
341.938
332.578
360.68
355.92
343.943
340.006
328.735
321.971
312.301
319.886
296.726
301.008
299.431
300.289
294.23
296.117
271.033
270.861
275.988
273.003
292.187
293.656
287.307
282.626
249.458
253.482
260.809
261.294
274.718
274.699
274.682
277.368
275.277
279.016
264.8
256.029
280.864
272.288
290.057
291.47
294.659
290.412
287.697
287.767
290.584
285.717
281.068
273.465
266.833
271.484
274.829
266.096
267.973
261.943
265.343
276.895
272.151
269.708
268.295
262.242
271.037
277.59
282.205
281.369
282.923
281.855
278.782
274.917
272.183
268.668
265.126
258.779
259.018
260.606
258.951
257.923
261.021
255.952
254.113
254.384
253.466
252.326
251.823
245.987
247.332
250.043
251.324
247.314
249.91
249.613
251.236
248.199
244.046
239.826
231.124
225.636
206.844
230.931
133.349
49.4234
159.425
52.7062
173.227
297.706
294.243
287.018
311.109
302.94
329.054
329.046
316.906
314.438
315.499
318.052
317.88
322.752
303.264
300.642
300.923
303.95
315.39
310.744
278.413
272.316
295.603
295.739
336.675
334.399
359.322
356.497
366.231
351.079
349.7
325.89
315.13
320.127
298.2
306.77
311.696
313.221
299.092
302.973
294.985
292.866
286.968
289.957
271.144
280.086
251.381
260.323
217.769
205.601
262.451
252.949
280.145
272.003
288.357
283.37
292.815
292.038
293.242
292.573
285.749
287.879
290.494
287.503
296.455
293.167
290.537
281.399
279.322
279.814
277.006
271.383
274.749
270.203
266.565
273.565
268.602
248.726
240.51
244.088
257.293
270.834
275.323
277.273
277.265
273.382
273.68
273.726
275.354
269.561
269.9
265.277
263.617
261.16
259.392
255.073
251.354
255.081
260.574
264.244
266.426
259.544
252.185
244.894
247.587
248.098
245.839
245.601
245.829
245.154
251.966
250.6
246.278
241.841
243.279
239.921
238.865
235.07
236.939
233.646
230.731
225.99
217.363
225.63
204.524
170.219
50.7266
47.4313
179.044
273.047
296.63
291.785
314.923
310.381
312.207
308.296
313.706
310.637
328.884
327.825
336.158
336.906
328.179
327.929
324.832
330.071
247.88
258.676
277.238
272.994
313.944
314.956
313.269
317.045
327.428
322.68
317.325
289.589
285.607
253.02
253.293
274.533
263.094
276.774
267.37
266.189
262.049
264.88
251.394
250.762
252.567
250.914
252.861
254.672
266.245
261.953
287.745
285.72
315.071
307.588
325.568
318.666
314.059
314.366
291.668
299.406
303.07
299.372
295.429
299.257
289.795
292.759
286.927
280.317
274.64
270.642
274.803
280.742
284.537
283.324
284.71
289.088
301.003
304.947
301.75
286.155
280.613
285.593
283.133
280.663
275.094
271.734
270.166
262.298
258.014
259.235
260.982
245.37
237.44
229.425
229.97
236.328
243.467
250.898
260.322
263.383
260.187
253.799
249.37
243.746
249.894
254.286
257.615
247.704
235.671
237.711
238.36
243.19
250.604
239.446
233.219
229.93
226.897
218.971
215.918
214.217
217.154
218.621
228.797
230.775
236.859
242.277
231.986
220.344
214.324
213.448
215.786
276.051
297.443
294.05
275.246
272.95
263.958
260.97
282.468
279.938
321.866
316.477
332.423
327.616
327.974
326.475
302.768
301.793
307.163
317.888
321.392
324.677
269.718
287.044
226.38
262.523
205.568
177.811
218.206
74.025
141.66
112.596
120.369
220.963
255.376
277.259
280.575
266.899
247.945
246.562
235.909
238.32
258.933
250.795
279.92
275.699
294.423
292.438
298.648
303.327
304.743
302.145
303.168
292.188
285.462
278.813
288.134
294.767
285.967
282.975
280.97
282.627
282.713
284.023
278.637
276.287
279.976
286.439
292.684
292.315
289.255
286.735
288.805
293.933
296.685
285.332
278.844
266.652
269.965
282.492
283.366
281.995
280.646
278.255
273.26
267.085
266.878
268.4
264.788
252.422
256.485
254.525
252.239
252.694
247.789
254.863
260.49
254.27
253.751
248.541
246.007
255.644
268.304
258.791
245.406
224.986
217.539
232.211
233.002
230.088
218.648
206.315
223.249
221.843
216.914
212.954
215.736
216.6
216.793
218.924
222.894
227.639
240.114
233.304
219.132
218.828
226.125
228.915
229.304
265.007
217.897
211.087
242.129
231.621
253.258
251.438
269.259
273.449
265.298
262.349
273.763
262.907
259.256
240.303
229.856
237.654
256.256
268.174
227.276
221.167
222.506
236.722
214.328
212.907
112.789
98.4818
111.682
110.4
107.044
106.232
111.989
87.2027
238.099
223.019
241.023
219.179
228.617
240.843
270.531
269.569
289.437
285.039
291.24
290.906
288.498
289.007
284.108
291.215
262.626
268.231
248.573
230.882
259.209
246.702
257.708
259.869
250.891
248.648
270.55
266.324
266.821
265.98
265.831
269.245
277.386
282.561
285.58
280.537
281.362
280.61
279.724
279.95
274.553
273.164
289.857
286.365
287.618
283.596
269.5
266.642
266.656
264.222
263.017
264.288
267.576
279.62
291.047
288.473
292.238
278.461
269.009
270.983
270.766
266.992
252.05
240.908
243.359
240.937
244.387
244.615
224.274
197.835
210.986
217.758
236.359
251.178
249.822
240.867
232.342
224.136
215.347
209.346
221.121
221.766
222.586
217.001
209.386
206.302
197.228
197.983
193.712
171.812
187.851
195.253
182.538
180.399
183.68
244.683
179.293
202.848
227.599
212.113
208.047
172.42
77.6736
75.377
85.8882
88.7536
86.4514
89.6936
71.195
75.4269
218.026
242.537
253.807
252.856
257.444
250.152
247.551
243.825
225.968
201.13
139.513
82.2999
90.6736
88.078
86.0809
83.2699
81.5352
73.8113
177.836
152.745
162.07
189.481
241.997
258.678
285.59
283.122
286.282
282.283
277.138
277.507
276.882
275.934
280.263
279.126
281.469
281.311
275.026
270.983
249.17
247.077
248.055
247.166
264.933
264.287
271.987
265.286
278.176
273.218
274.404
273.178
267.357
259.266
248.077
242.946
250.286
250.287
252.619
254.049
254.429
258.35
259.17
243.5
252.773
241.794
237.817
252.547
252.19
253.825
259.07
261.565
262.078
272.154
273.604
252.226
241.426
209.257
208.091
240.085
250.102
247.234
248.659
249.044
242.249
238.753
239.949
235.279
231.936
225.511
223.355
228.366
236.674
233.109
222.987
209.6
205.152
204.725
205.517
212.227
220.042
212.756
212.059
207.612
210.928
205.644
192.565
189.671
171.512
172.088
198.162
196.152
195.068
186.61
154.846
237.445
224.235
240.182
69.9397
68.207
198.114
124.638
143.433
61.7566
64.8386
65.0552
70.686
61.9817
61.8904
54.5991
243.107
225.885
300.756
283.106
317.203
287.298
270.881
249.917
218.815
210.156
207.863
224.175
62.6579
68.5673
51.6829
49.962
49.7739
52.1529
273.166
271.012
283.584
284.902
291.426
288.653
280.816
281.85
277.5
272.876
290.855
285.681
289.839
289.047
276.211
279.919
256.875
262.021
257.247
245.924
265.564
258.107
276.782
275.227
281.058
280.875
275.605
275.26
275.07
270.617
271.503
269.076
268.161
262.181
258.99
255.186
244.923
238.57
238.558
241.712
246.233
236.071
215.177
198.852
215.283
215.177
245.112
261.579
261.756
258.813
252.529
246.942
241.322
253.621
253.182
223.571
225.071
216.315
229.467
253.144
250.074
235.479
231.466
236.767
244.236
242.596
237.898
233.122
234.425
231.375
232.036
235.964
233.255
233.144
245.129
236.614
228.729
228.001
223.174
225.354
220.964
208.691
209.68
205.912
206.458
201.8
206.828
212.381
213.037
214.882
205.393
184.618
175.742
155.794
135.631
201.83
208.056
207.335
181.467
200.509
200.368
140.326
247.057
244.19
256.7
265.862
236.14
243.534
232.477
225.273
148.834
196.229
122.001
78.0088
85.2607
101.355
103.519
91.8466
139.264
212.716
239.613
251.265
278.012
276.215
283.15
52.5093
55.5118
274.004
283.115
282.178
276.238
281.752
263.405
262.538
272.946
269.64
283.276
280.663
286.044
280.645
297.028
288.137
262.224
268.232
237.912
252.517
255.761
250.022
281.005
271.875
293.842
287.718
277.343
279.03
267.825
271.039
264.395
261.845
265.023
261.816
262.581
260.218
263.782
264.445
266.307
268.299
267.984
266.127
260.666
253.646
259.028
261.129
258.835
252.779
254.068
250.26
246.82
240.405
236.941
234.439
232.289
245.139
237.856
220.577
239.168
234.267
238.466
245.328
236.294
223.211
224.711
228.914
222.1
219.057
227.414
223.446
219.772
214.342
213.668
222.982
229.356
226.193
217.822
188.127
183.561
201.378
213.134
214.262
205.979
194.859
195.077
190.045
191.329
187.397
190.959
193.955
193.726
193.664
190.335
168.033
156.159
138.134
138.902
188.634
206.342
203.166
260.445
262.909
210.495
217.682
248.544
242.022
241.671
245.343
225.812
236.444
182.737
165.008
133.133
82.1551
94.3045
97.4226
95.09
91.5636
91.223
86.2575
51.5658
243.397
283.015
278.295
294.286
290.6
309.274
301.567
296.237
295.554
277.073
280.602
268.878
272.926
250.354
260.513
266.267
265.737
277.211
272.987
278.875
276.779
248.641
235.412
239.901
237.243
264.876
269.895
291.93
289.545
302.103
297.199
272.519
270.072
261.881
262.441
275.704
273.036
266.522
267.1
260.862
258.906
258.217
258.949
263.421
262.749
264.717
263.743
262.114
257.197
252.783
251.359
252.935
250.928
250.929
247.218
248.471
243.179
242.932
237.927
236.127
237.422
238.543
242.169
227.493
207.668
196.152
178.134
204.425
215.634
222.845
221.888
228.54
227.836