# vtk DataFile Version 3.0
vtk output
ASCII
DATASET POLYDATA
POINTS 24578 float
-151.53 81.83 75.23
-146.76 79.98 77.9
-147.26 82.51 76.57
-151.22 79.35 76.36
-146.3 77.32 78.47
-150.76 76.75 77.01
-146.01 74.82 79.56
-150.4 74.19 77.98
-145.43 72.07 79.86
-149.95 71.56 78.66
-145.02 69.6 80.58
-149.55 69.11 79.46
-144.64 67.21 81.53
-149.14 66.64 80.2
-144.27 64.77 82.34
-148.68 64.12 80.8
-144.06 62.18 83.1
-148.26 61.63 81.51
-143.83 59.57 83.96
-148.2 59.14 82.73
-143.54 56.98 84.63
-148.02 56.58 83.6
-143.3 54.28 84.95
-147.52 53.77 83.62
-142.71 51.53 84.98
-147.03 50.98 83.68
-142.34 49.05 85.71
-146.66 48.52 84.06
-142.24 46.57 86.6
-146.26 46.05 84.34
-145.97 43.63 84.94
-141.82 44.09 87.11
-141.56 41.44 87.04
-145.67 41.21 85.5
-140.98 38.76 87.5
-145.29 38.66 85.7
-140.75 36.16 87.85
-144.89 36.1 85.85
-144.62 33.53 86.3
-140.46 33.57 88.45
-140.13 30.94 88.56
-144.22 30.94 86.41
-143.81 28.2 86.49
-139.84 28.2 88.9
-143.44 25.45 86.68
-139.6 25.51 89.44
-143.18 22.67 87.12
-139.22 22.78 89.44
-142.9 19.88 87.51
-138.79 20.04 89.71
-142.6 17.15 87.83
-138.39 17.32 89.75
-137.91 14.61 89.73
-142.25 14.42 88.03
-141.99 11.68 88.46
-137.6 11.89 89.94
-141.61 8.95 88.57
-137.22 9.16 90.05
-141.13 6.27 88.48
-136.86 6.45 90.3
-140.68 3.58 88.47
-136.37 3.76 90.16
-140.25 0.89 88.51
-135.88 1.07 90.03
-139.71 -1.79 88.26
-135.64 -1.76 90.02
-135.64 -4.55 89.75
-140 -4.44 88.09
-135.69 -7.09 89
-140.34 -7.12 88.03
-135.79 -9.62 88.23
-140.37 -9.69 87.25
-135.84 -12.19 87.54
-140.43 -12.27 86.54
-135.99 -14.75 87
-140.5 -14.79 85.8
-136.21 -17.35 86.64
-140.62 -17.33 85.19
-136.42 -19.93 86.21
-140.85 -19.94 84.82
-136.49 -22.42 85.34
-140.79 -22.34 83.7
-136.45 -24.91 84.43
-140.78 -24.79 82.73
-136.55 -27.44 83.74
-140.84 -27.3 81.99
-136.57 -29.97 82.98
-140.97 -29.86 81.42
-136.73 -32.54 82.43
-141.02 -32.36 80.63
-136.76 -35.12 81.64
-141.09 -34.97 79.94
-141.32 -37.69 79.69
-136.83 -37.72 80.96
-141.45 -40.33 79.13
-136.9 -40.34 80.32
-137.11 -43 79.41
-141.48 -42.91 78.35
-141.57 -45.38 77.61
-137.04 -45.54 78.64
-141.59 -47.8 76.7
-137.03 -47.91 77.56
-141.86 -50.43 76.49
-137.15 -50.39 76.9
-141.9 -52.84 75.63
-137.27 -52.84 76.11
-141.91 -55.11 74.4
-137.53 -55.19 75.26
-137.48 -57.49 74.21
-141.9 -57.35 73.07
-142.03 -59.74 72.14
-137.7 -59.92 73.43
-142.25 -62.22 71.44
-137.97 -62.48 72.92
-142.57 -64.67 70.67
-138.15 -65.14 72.4
-142.87 -67.1 69.86
-138.34 -67.41 71.12
-143.16 -69.56 69.09
-138.58 -69.8 70.17
-143.42 -71.97 68.22
-138.72 -72 68.84
-143.42 -74.03 66.78
-138.71 -74.17 67.59
-143.52 -76.26 65.69
-138.9 -76.5 66.65
-143.64 -78.59 64.8
-139.03 -78.91 65.88
-143.64 -80.66 63.43
-139.36 -81.09 64.3
-142.41 80.53 78.87
-142.88 83.09 77.59
-141.83 77.87 79.86
-141.49 75.33 80.8
-140.97 72.61 81.19
-140.47 70.13 81.77
-140.01 67.69 82.47
-139.94 65.21 83.59
-139.84 62.72 84.64
-139.44 60.04 85.13
-139.12 57.42 85.86
-138.88 54.8 86.42
-138.56 52.14 86.78
-138.19 49.56 87.25
-137.83 46.99 87.76
-137.58 44.31 88.01
-137.31 41.63 88.23
-137.03 38.95 89.21
-136.57 36.22 89.77
-136.22 33.57 90.06
-135.88 30.91 90.36
-135.74 28.24 91.1
-135.47 25.56 91.56
-134.94 22.88 91.41
-134.47 20.19 91.43
-134.08 17.49 91.57
-133.61 14.8 91.52
-133.09 12.1 91.2
-132.71 9.37 91.23
-132.3 6.67 91.32
-131.94 3.96 91.53
-131.76 1.11 91.67
-131.5 -1.71 91.62
-131.31 -4.41 90.89
-131.1 -7.09 90.13
-131.35 -9.7 89.79
-131.55 -12.29 89.33
-131.63 -14.81 88.62
-131.74 -17.34 87.96
-131.85 -19.85 87.19
-132.06 -22.42 86.66
-132.19 -25.02 86.17
-132.25 -27.57 85.48
-132.26 -30.09 84.65
-132.44 -32.72 84.26
-132.56 -35.36 83.72
-132.63 -37.97 83.04
-132.75 -40.58 81.94
-132.83 -43.16 80.72
-132.77 -45.71 79.94
-132.75 -48.3 79.25
-132.77 -50.64 78.12
-132.8 -52.99 77
-132.95 -55.32 76.2
-133.13 -57.69 75.53
-133.33 -60.11 74.69
-133.5 -62.48 73.72
-133.64 -65.09 73
-133.72 -67.59 72.04
-133.86 -69.81 70.74
-134.01 -72.03 69.43
-134.18 -74.44 68.63
-134.35 -76.86 67.84
-134.77 -79.33 66.76
-135.07 -81.54 65.2
-138.04 81.11 79.93
-138.51 83.66 78.64
-137.48 78.45 80.95
-136.81 75.7 81.58
-136.53 73.2 82.68
-136.2 70.85 83.66
-136.01 68.35 84.53
-135.78 65.76 85.17
-135.49 63.19 85.82
-135.19 60.56 86.38
-134.98 57.99 87.45
-134.76 55.37 88.25
-134.53 52.77 88.88
-134 50.11 89.1
-133.65 47.3 89.03
-133.3 44.56 89.42
-133.29 41.92 90.17
-132.89 39.2 91
-132.5 36.43 91.58
-132.05 33.68 92.21
-131.7 30.98 92.36
-131.44 28.31 92.66
-131.04 25.67 93.02
-130.62 23.02 93.01
-130.15 20.36 93.11
-129.82 17.66 93.35
-129.27 14.97 93.05
-128.74 12.27 92.73
-128.4 9.55 92.87
-127.96 6.85 92.86
-127.84 4 93.22
-127.59 1.17 93.17
-127.27 -1.64 92.97
-127.25 -4.36 92.57
-127.15 -7.08 92.07
-127.17 -9.83 91.83
-127.29 -12.38 91.16
-127.29 -14.86 90.23
-127.44 -17.42 89.6
-127.57 -19.97 88.96
-127.76 -22.53 88.35
-127.82 -25.1 87.72
-127.85 -27.64 86.95
-127.95 -30.27 86.46
-128.2 -32.95 86.24
-128.25 -35.54 85.49
-128.5 -38.26 84.8
-128.59 -40.83 83.55
-128.62 -43.36 82.3
-128.5 -45.86 81.36
-128.57 -48.51 80.64
-128.51 -50.96 79.6
-128.63 -53.39 78.68
-128.82 -55.89 78.24
-129.15 -58.39 77.85
-129.06 -60.46 76.29
-128.99 -62.4 74.44
-128.98 -64.79 73.19
-129.01 -67.15 71.96
-128.97 -69.58 70.84
-129.28 -72.05 69.98
-129.48 -74.55 69.36
-130.01 -77.21 68.65
-130.42 -79.71 67.63
-130.79 -82.03 66.21
-133.82 81.84 81.46
-134.36 84.47 80.38
-133.19 79.09 82.22
-132.49 76.28 82.7
-131.95 73.65 83.71
-131.93 71.29 85
-131.87 68.9 86.17
-131.5 66.27 86.57
-131.13 63.64 86.94
-130.87 61.02 87.58
-130.68 58.45 88.47
-130.46 55.86 89.34
-130.18 53.24 90.02
-129.88 50.44 90.31
-129.64 47.69 90.79
-129.42 44.94 91.36
-129.23 42.2 92.03
-128.71 39.37 92.41
-128.45 36.65 93.48
-128.03 33.86 94.03
-127.47 31.03 94.24
-127.19 28.41 94.71
-126.88 25.78 95.12
-126.32 23.16 94.88
-125.8 20.53 94.74
-125.36 17.84 94.64
-124.86 15.16 94.43
-124.49 12.44 94.52
-124.2 9.71 94.8
-123.95 6.88 94.78
-123.68 4.05 94.73
-123.4 1.23 94.62
-123.18 -1.6 94.69
-123.37 -4.41 94.84
-123.31 -7.12 94.32
-123.16 -9.79 93.63
-122.95 -12.42 92.76
-123.09 -14.99 92.12
-123.27 -17.57 91.56
-123.4 -20.13 90.9
-123.5 -22.66 90.14
-123.53 -25.22 89.42
-123.57 -27.78 88.7
-123.68 -30.42 88.22
-123.74 -33.02 87.62
-123.94 -35.69 86.77
-124.14 -38.36 85.91
-124.27 -40.96 84.88
-124.51 -43.67 84.17
-124.44 -46.18 83.04
-124.36 -48.68 81.9
-124.32 -51.14 80.87
-124.34 -53.66 80.01
-124.65 -56.22 79.72
-124.85 -58.64 79.12
-124.76 -60.62 77.46
-124.57 -62.46 75.52
-124.49 -64.69 73.94
-124.51 -67.1 72.74
-124.57 -69.65 71.8
-124.65 -72.26 70.99
-125.14 -74.86 70.13
-125.57 -77.36 69.04
-126.01 -79.84 67.96
-126.39 -82.16 66.58
-129.58 82.52 82.46
-130.23 85.32 82
-128.9 79.77 83.09
-128.4 77.11 83.84
-127.98 74.41 84.96
-127.56 71.77 85.9
-127.33 69.24 86.57
-127.15 66.76 87.43
-126.86 64.14 88.01
-126.52 61.49 88.81
-126.36 58.96 89.84
-126.14 56.38 90.8
-125.97 53.53 91.15
-125.51 50.64 91.5
-125.42 47.93 92.31
-125.22 45.19 93.14
-125.05 42.45 93.81
-124.64 39.66 94.38
-124.31 36.88 95.2
-123.77 34.05 95.42
-123.26 31.23 95.69
-122.78 28.52 96.11
-122.44 25.87 96.38
-121.98 23.27 96.26
-121.42 20.65 96.06
-121.04 17.96 96.08
-120.68 15.29 96.36
-120.38 12.57 96.56
-120.17 9.75 96.72
-119.91 6.93 96.66
-119.55 4.12 96.37
-119.27 1.3 96.28
-119.07 -1.54 96.32
-119.25 -4.36 96.51
-119.22 -7.1 96.08
-119.04 -9.77 95.31
-119 -12.5 94.8
-118.91 -15.21 94.19
-119.08 -17.79 93.59
-119.2 -20.38 92.98
-119.3 -22.91 92.18
-119.31 -25.47 91.43
-119.31 -28 90.63
-119.33 -30.55 89.87
-119.45 -33.15 88.84
-119.6 -35.8 87.91
-119.83 -38.5 87.17
-120.05 -41.2 86.43
-120.26 -43.87 85.57
-120.32 -46.42 84.63
-120.24 -48.94 83.59
-120.24 -51.46 82.7
-120.29 -53.99 81.83
-120.1 -56.26 80.6
-120.22 -58.48 79.45
-120.33 -60.66 78.2
-120.24 -62.81 76.84
-120.26 -65.2 75.6
-120.18 -67.48 74.2
-120.23 -70.02 73.25
-120.52 -72.67 72.16
-120.81 -75.19 70.96
-121.18 -77.58 69.65
-121.52 -79.9 68.24
-121.92 -82.27 66.97
-125.25 83.17 83.41
-125.88 85.88 82.84
-124.6 80.45 83.94
-124.22 77.72 84.75
-123.94 75.09 85.93
-123.46 72.43 86.81
-122.93 69.71 87.46
-122.73 67.14 88.15
-122.59 64.64 89.06
-122.25 62 89.9
-121.95 59.4 90.9
-121.96 56.7 91.92
-121.73 53.8 92.2
-121.47 50.99 93.04
-121.27 48.22 94.07
-121.07 45.45 94.8
-120.88 42.69 95.58
-120.53 39.9 96.26
-120.06 37.06 96.59
-119.52 34.23 96.77
-119.19 31.45 97.53
-118.64 28.71 97.7
-118.07 25.97 97.81
-117.65 23.36 97.86
-117.2 20.75 97.82
-116.76 18.09 97.81
-116.45 15.42 98.16
-116.25 12.62 98.27
-115.94 9.82 98.09
-115.72 7.01 98.16
-115.43 4.19 98.08
-115.24 1.34 98.13
-115.02 -1.5 98.11
-115.03 -4.27 97.86
-115.05 -7.04 97.62
-115.01 -9.78 97.12
-114.91 -12.5 96.46
-114.83 -15.21 95.87
-114.79 -17.94 95.36
-114.95 -20.55 94.79
-115.09 -23.14 94.17
-115.09 -25.69 93.41
-115.09 -28.25 92.66
-115.19 -30.82 91.55
-115.34 -33.43 90.58
-115.56 -36.16 89.86
-115.65 -38.76 88.81
-115.73 -41.32 87.6
-115.89 -43.96 86.62
-115.94 -46.5 85.75
-115.97 -49.02 84.82
-116.06 -51.62 84.1
-116.16 -54.22 83.41
-116 -56.46 81.98
-115.78 -58.59 80.34
-115.73 -60.7 78.9
-115.82 -63.01 77.89
-115.91 -65.56 77.02
-115.85 -67.86 75.66
-116.07 -70.39 74.35
-116.45 -73.24 73.66
-116.73 -75.78 72.45
-116.87 -78.01 70.66
-117.13 -80.1 68.85
-117.46 -82.37 67.36
-120.93 83.58 83.84
-121.35 86.18 83.25
-120.43 80.92 84.76
-120.24 78.29 85.68
-119.85 75.73 86.84
-119.39 73.08 87.68
-118.97 70.39 88.56
-118.52 67.71 89.38
-118.27 65.1 89.93
-117.89 62.43 90.71
-117.77 59.68 91.68
-117.62 56.89 92.64
-117.53 54.11 93.38
-117.25 51.28 94.27
-116.99 48.44 95.07
-116.61 45.56 95.63
-116.37 42.76 96.18
-116.01 39.98 96.85
-115.62 37.17 97.41
-115.23 34.39 98.02
-114.97 31.62 98.96
-114.53 28.91 99.33
-113.9 26.15 99.26
-113.4 23.47 99.53
-113.04 20.85 99.72
-112.61 18.2 99.71
-112.34 15.45 99.77
-112.11 12.66 99.75
-111.7 9.9 99.43
-111.54 7.08 99.65
-111.31 4.26 99.65
-111.1 1.42 99.6
-110.91 -1.42 99.76
-110.84 -4.17 99.3
-110.76 -6.92 98.71
-110.8 -9.71 98.47
-110.76 -12.46 97.96
-110.67 -15.19 97.39
-110.65 -17.93 96.92
-110.56 -20.62 96.27
-110.66 -23.19 95.59
[...]
CELL_DATA 49152
SCALARS Temperature float 1
LOOKUP_TABLE default
4.31238
4.06875
16.1559
6.06892
4.94281
10.3021
21.202
18.3731
18.074
20.7381
19.6206
20.1164
19.4884
10.739
11.8187
12.9645
13.6233
23.6254
28.2
32.1058
181.106
262.717
264.516
255.931
88.3153
232.62
87.8966
278.424
241.745
252.079
292.446
186.272
231.757
261.714
237.248
277.784
240.941
230.105
282.503
286.506
288.638
274.8
289.068
270.602
279.614
298.728
268.08
276.735
267.151
281.895
288.785
256.246
224.248
241.834
255.526
255.534
276.882
258.125
283.172
288.85
273.611
281.853
291.725
277.181
288.453
266.572
314.925
227.525
301.623
302.551
296.825
298.013
285.269
305.096
274.052
301.289
286.494
279.51
316.29
335.431
324.947
328.605
311.76
316.597
318.092
300.92
298.764
320.281
319.515
311.558
278.3
302.042
292.604
297.213
309.909
305.604
304.273
306.253
315.216
321.902
248.76
282.629
298.704
294.725
323.928
307.787
322.641
339.615
317.986
310.487
304.89
294.571
310.604
299.978
316.48
336.318
306.635
315.756
310.657
330.485
338.828
332.526
323.271
315.791
313.642
307.557
343.444
344.429
3.32187
3.54327
19.3061
19.9827
3.47445
4.70358
3.80266
4.44344
2.66238
2.5883
1.84978
2.79686
2.80071
23.4302
26.6981
12.2562
23.5911
22.5325
29.5057
31.1707
78.8274
223.502
221.138
284.151
64.6172
84.1711
54.5958
82.6166
212.376
70.3574
198.176
259.339
193.536
83.858
241.237
234.921
213.538
242.604
262.068
250.596
244.124
202.234
241.047
247.282
305.304
284.89
265.279
277.512
264.568
277.136
286.159
283.303
303.659
227.817
252.15
238.509
216.987
231.65
260.682
237.212
275.766
256.926
272.195
274.383
315.926
268.793
307.135
304.338
269.767
313.101
291.044
313.892
314.873
299.649
308.098
277.414
308.941
274.667
283.121
315.337
289.664
326.69
313.201
312.47
321.577
316.646
289.761
304.265
303.851
323.99
317.533
317.773
334.236
308.928
335.192
313.814
313.035
313.183
330.092
315.211
312.037
331.218
310.95
325.302
308.275
307.712
323.954
306.158
310.71
313.483
289.328
313.219
278.463
289.398
326.189
313.505
313.106
328.009
329.766
328.964
328.801
308.952
317.316
310.399
309.871
317.884
344.495
343.804
2.7088
2.84283
16.7705
17.3625
23.4269
22.3423
17.71
3.53377
1.71806
3.22586
3.19335
3.12517
3.36413
3.02158
11.3207
36.2484
31.7276
27.7772
33.7803
160.238
22.6475
219.035
205.925
263.178
282.144
238.135
284.985
175.019
207.92
231.831
82.0719
266.515
118.456
169.126
229.088
225.943
256.799
240.413
267.242
274.896
178.403
233.114
207.245
221.551
267.487
287.912
266.239
276.059
262.948
256.196
303.541
276.045
296.531
296.3
266.471
259.945
266.887
272.174
248.09
232.585
259.175
270.054
270.39
278.121
286.902
317.971
304.248
325.51
292.333
292.392
315.709
297.296
328.14
311.602
305.075
308.837
306.979
317.28
306.052
299.168
308.587
294.998
314.429
307.789
293.576
322.946
292.827
282.044
319.878
302.657
307.08
313.433
337.869
329.283
337.593
334.281
318.736
324.637
309.198
308.596
329.267
335.348
322.896
338.211
322.175
304.362
319.118
301.822
364.508
320.868
365.665
313.404
294.142
314.966
297.022
308.571
315.235
306.403
320.537
300.075
297.785
287.921
300.559
290.624
316.406
313.813
343.013
337.607
3.41088
3.2347
15.8118
9.56033
27.3307
23.617
15.3563
7.39098
7.93428
5.16495
6.96785
11.6762
235.957
49.3463
31.1552
31.8205
32.5861
30.6797
32.0904
35.9469
32.6237
33.505
37.9024
36.4522
208.95
237.995
172.877
285.031
216.323
258.375
176.763
200.38
186.049
229.647
181.928
71.3421
229.523
234.049
271.086
272.556
251.144
239.729
258.676
253.043
310.503
283.95
295.868
267.161
282.373
226.246
279.389
290.344
252.65
304.669
267.26
258.649
287.471
284.017
246.439
271.219
270.595
273.94
282.054
268.343
243.398
309.587
316.614
316.825
326.823
288.397
327.592
307.916
305.549
329.361
305.633
311.84
313.802
312.657
319.691
306.462
316.081
308.842
314.307
318.286
299.102
300.439
276.814
299.59
310.261
308.114
310.347
295.616
317.823
331.378
301.728
340.793
338.741
330.686
337.726
306.231
326.214
327.435
319.707
317.783
288.763
277.532
284.971
299.107
357.009
351.058
365.339
359.248
347.455
327.236
326.277
325.051
321.325
314.189
308.204
306.409
294.669
301.208
289.968
309.171
305.408
307.967
327.39
326.312
23.8805
11.4156
27.3943
26.9574
26.8887
24.5379
6.63529
7.00204
10.2172
7.54698
32.2461
29.3338
37.6146
39.5006
38.2161
38.4195
32.3044
30.479
23.5073
25.6192
24.0783
23.2023
219.171
52.8139
208.574
211.045
62.5227
204.075
181.445
112.601
184.466
183.157
252.512
239.688
77.5748
151.109
223.959
247.087
240.187
253.16
198.659
212.266
201.507
218.244
270.896
288.268
285.412
276.899
258.002
276.262
286.512
261.859
278.18
271.704
264.514
268.483
283.626
285.402
302.614
276.307
281.072
280.251
265.402
266.479
239.292
236.468
297.266
305.719
321.06
315.186
302.775
332.086
317.584
314.122
310.977
307.905
312.076
315.494
323.367
321.051
322.282
319.904
324.697
318.229
320.74
296.756
325.697
297.953
314.287
307.347
300.287
310.003
302.664
325.368
315.074
303.426
320.787
334.914
331.483
337.059
325.404
335.327
326.413
325.988
285.803
331.438
289.5
317.076
322.764
349.777
336.679
368.007
337.274
356.638
350.831
337.884
324.514
324.338
316.345
321.809
308.461
322.831
316.684
325.796
312.711
326.095
324.673
320.672
26.7918
28.4875
27.9249
28.0999
22.8078
22.108
9.99731
12.965
24.031
23.4794
32.8974
33.0675
34.0812
33.9006
34.543
36.444
33.0418
33.2916
28.2334
29.2396
32.252
31.2302
209.986
180.635
54.7799
243.711
69.4853
61.1052
118.457
152.851
168.647
148.009
223.287
212.699
181.735
231.149
251.557
244.947
237.916
193.761
251.35
264.838
246.124
259.843
261.348
284.631
277.936
298.965
277.804
280.172
250.603
244.811
260.295
262.882
289.136
241.211
265.492
257.956
273.441
297.341
282.012
274.233
275.35
278.319
287.882
218.868
272.914
293.868
298.424
322.465
315.206
302.696
308.095
309.821
303.083
305.531
303.65
308.163
308.233
322.116
322.246
321.195
321.411
324.9
334.829
318.18
324.387
328.588
310.58
326.314
332.966
309.978
335.24
301.267
315.562
305.936
310.833
315.154
315.619
324.457
316.513
308.752
318.211
310.587
350.18
341.604
356.467
328.178
342.827
329.867
336.107
323.49
331.938
319.299
344.37
347.272
324.567
332.264
320.754
304.526
333.065
333.092
357.837
332.317
354.661
331.642
324.531
332.107
19.9148
25.0867
18.3153
25.4629
18.3987
19.3981
8.23519
8.23773
25.1442
25.8379
26.7079
30.631
26.8106
27.9337
33.5948
31.7791
38.5659
39.7284
39.8146
40.7936
45.1234
46.7008
53.7794
47.8738
45.2479
45.5233
46.6174
55.0759
56.6816
60.9678
63.3224
67.1008
67.077
69.414
68.7198
161.287
206.051
60.8165
61.9805
62.9169
255.623
242.348
272.879
280.399
265.121
255.071
281.452
268.698
287.414
287.229
251.392
266.404
259.155
266.641
294.404
275.975
250.243
239.184
273.253
268.475
262.666
268.049
265.765
255.749
299.52
277.04
302.015
263.894
263.164
293.695
294.221
308.288
303.083
304.687
296.01
300.044
309.407
297.744
306.268
300.178
312.02
311.286
304.81
312.507
315.726
330.869
322.998
323.793
307.484
308.949
336.687
325.862
342.228
329.828
319.698
316.955
315.362
314.639
320.912
317.34
303.936
306.993
300.285
305.713
328.084
345.699
349.46
356.262
340.476
352.817
338.981
330.116
319.555
331.358
339.261
339.32
338.365
327.663
289.891
294.61
320.342
307.43
357.147
349.356
354.295
351.407
337.87
344.25
16.0569
17.5334
15.8383
16.4567
15.8221
17.0028
15.4808
15.3951
19.4839
25.1723
18.4387
26.4241
23.9586
28.5702
35.9253
36.6475
31.7013
34.6704
36.6799
38.1899
44.7723
46.6693
53.0529
53.2812
57.052
56.5299
62.6158
65.0825
69.1752
69.8627
73.5931
69.3547
70.3657
70.5493
63.0542
64.3402
60.2684
61.6177
60.9162
102.419
179.904
176.638
244.931
266.594
222.485
220.421
230.169
210.105
267.881
250
268.493
269.979
284.204
267.505
279.188
301.286
252.072
258.351
269.6
275.429
268.57
271.897
244.293
268.181
266.97
287.601
282.835
301.037
282.44
270.686
286.036
295.16
281.445
306.223
278.965
304.918
314.396
316.998
337.499
308.006
318.541
313.413
314.507
303.614
311.34
313.47
318.433
316.817
310.102
296.944
324.767
329.24
327.012
341.17
320.227
322.572
321.465
318.588
326.342
323.387
320.022
309.609
310.981
318.149
317.744
333.1
335.252
354.252
336.265
345.867
351.84
337.051
346.421
333.953
339.846
341.904
353.938
336.734
299.293
322.837
290.899
313.74
336.265
324.09
344.732
329.444
347.796
334.775
4.69249
12.6987
12.2895
12.7488
16.0403
13.676
10.1419
10.4958
18.6831
17.1526
21.4512
19.5535
13.3503
23.8485
12.1189
27.633
19.9786
24.0843
30.4649
36.1594
36.8049
45.9719
46.4679
54.7547
59.5009
61.466
68.9261
64.156
70.2493
50.3407
56.7367
45.9671
53.4345
58.6414
49.5765
51.7986
58.7048
61.0456
216.836
226.519
224.315
198.756
279.203
264.223
272.361
290.708
226.888
249.382
223.147
218.414
253.845
238.986
279.002
277.195
280.218
276.741
257.908
261.789
277.37
258.014
288.255
295.174
293.516
300.847
288.058
281.261
291.939
289.803
286.492
283.121
289.478
289.639
279.472
283.639
280.435
270.382
281.317
309.331
315.831
338.901
332.022
324.454
341.833
315.039
317.248
313.154
316.035
320.696
318.544
311.167
327.285
328.578
320.021
332.566
332.52
318.476
318.804
319.176
321.22
325.966
314.397
322.1
330.798
324.53
343.567
317.351
330.98
321.034
330.966
332.296
350.822
341.591
337.121
342.225
340.805
337.558
350.19
352.103
336.728
335.354
338.806
341.011
337.298
338.532
330.477
329.257
329.676
331.997
7.80525
3.12107
9.41535
15.681
10.2034
11.2099
10.5995
9.71947
9.82725
12.0344
11.4228
12.8074
4.5908
11.9271
4.6826
7.6964
11.7085
3.64529
15.9797
9.09491
14.1825
15.1143
19.3218
31.3107
25.0686
63.9672
61.0179
66.5445
65.3257
72.6489
70.7349
70.5533
72.4291
76.9457
66.6083
69.9801
68.416
163.642
207.348
178.649
161.905
72.1616
251.673
258.292
299.976
291.077
265.063
264.562
238.302
230.775
248.389
261.504
273.398
275.628
268.305
262.926
259.568
257.894
238.654
229.753
292.155
295.348
301.336
301.302
288.816
288.44
299.088
292.134
295.365
284.192
276.185
292.163
281.844
282.478
302.278
273.906
312.836
258.869
267.024
303.882
284.957
325.507
330.941
340.026
328.367
320.064
319.499
319.841
325.061
319.995
320.776
333.036
327.64
325.016
328.551
335.887
327.352
327.299
329.394
328.351
334.983
316.263
329.468
331.047
339.651
347.186
326.874
334.582
340.425
331.875
337.318
355.114
348.727
343.232
349.075
343.515
346.629
355.343
349.455
337.17
343.875
325.756
348.336
335.555
371.527
334.974
360.356
329.737
8.90244
8.49143
1.51587
9.55592
1.65478
10.2948
1.59868
10.4159
2.78571
2.88386
3.17946
4.13942
4.13469
6.03975
6.47378
7.46992
7.89638
8.89148
9.27124
10.0799
13.898
16.5004
235.192
227.481
264.916
269.769
264.066
84.9339
87.0447
90.4294
98.9487
82.9695
86.1167
92.8224
91.3379
94.6301
164.672
159.201
74.7196
74.7439
84.8269
77.336
190.341
187.316
201.029
292.607
257.602
232.179
242.204
254.374
269.893
279.544
275.282
277.259
255.907
260.536
244.877
246.939
197.451
217.407
278.481
274.237
288.577
283.1
270.765
284.381
279.973
300.295
293.625
300.136
294.977
281.389
294.808
277.53
285.913
303.155
311.068
321.855
327.229
280.54
287.169
285.651
289.108
332.448
324.992
328.191
323.246
320.788
326.639
326.109
323.348
322.992
325.116
327.384
325.757
329.83
335.522
323.456
328.461
324.473
332.527
330.301
334.96
326.977
331.828
338.635
334.233
335.976
341.937
341.524
339.892
340.595
346.146
347.342
347.895
349.697
348.514
348.506
346.68
350.066
321.369
336.835
319.496
315.635
348.065
366.552
375.886
357.801
1.52562
1.47499
1.56781
2.264
2.08137
1.45342
1.68182
2.70587
2.61073
2.52643
2.32754
2.46164
3.20367
4.73504
5.31388
6.16997
6.71199
8.2345
8.84062
11.8501
15.0551
150.483
41.7609
38.1708
225.341
78.6584
271.329
223.798
276.154
290.051
307.534
187.82
242.373
252.716
185.113
86.7421
85.522
84.943
78.873
180.997
146.422
197.213
198.166
191.615
215.511
191.44
168.74
182.32
224.365
246.7
232.273
261.968
260.729
253.756
253.655
253.718
240.68
242.557
220.68
234.62
265.542
250.042
279.975
269.616
263.761
278.582
291.66
280.745
280.47
291.808
303.318
286.278
302.623
284.425
272.618
282.664
301.458
305.698
315.111
321.416
302.735
290.644
295.337
291.875
302.828
320.9
310.606
321.221
322.641
326.025
327.751
321.334
327.256
321.961
326.9
320.367
328.201
328.623
326.806
323.793
325.014
330.544
335.84
332.92
332.625
331.377
332.751
332.186
338.578
339.901
337.038
338.348
342.535
345.052
345.34
346.913
349.711
345.962
349.536
342.562
347.15
335.42
312.11
322.957
331.813
343.938
357.951
371.685
1.12602
1.69603
1.77667
2.40406
2.29103
2.93217
3.25677
3.49953
3.33139
3.86017
3.48981
3.81659
4.33003
3.0425
2.63528
2.5702
3.34138
4.3867
3.78941
14.5255
24.8705
11.3087
21.2935
18.0926
31.2703
51.2171
208.517
136.891
319.555
296.751
347.13
288.668
264.454
277.554
240.342
234.881
220.036
236.43
205.531
216.358
231.751
236.925
217.339
234.058
153.553
198.822
59.6236
161.783
217.019
169.183
231.597
209.038
251.29
240.011
261.416
255.288
258.405
257.441
260.508
265.665
256.531
254.382
267.504
260.538
274.9
263.082
293.195
286.089
284.788
274.549
289.194
298.731
308.203
300.36
285.564
271.422
308.699
294.097
289.116
313.893
290.95
302.119
298.032
298.019
305.678
306.358
306.261
309.878
319.243
319.883
326.476
323.638
326.777
323.901
328.95
323.37
318.955
328.63
324.084
328.264
336.022
323.712
330.813
334.118
333.609
331.201
331.452
331.691
332.415
339.49
340.875
336.462
340.544
341.914
344.661
343.742
346.587
348.115
350.349
348.296
351.436
346.339
340.273
326.977
343.637
332.574
342.24
360.991
0.550899
1.35898
1.57394
2.29225
2.54567
2.63487
2.98899
3.21663
3.63574
4.24304
4.33783
5.05592
5.1067
4.89701
4.78382
4.74893
5.13925
7.63664
6.64442
4.42574
7.34856
3.67206
4.71136
4.70057
9.41368
15.5255
15.5282
10.7998
278.316
259.653
323.194
323.121
293.887
244.974
149.367
164.459
172.986
178.42
134.946
165.119
171.85
188.673
201.272
213.381
203.32
190.912
221.868
193.802
214.763
151.794
248.489
225.766
274.941
278.284
277.294
290.264
263.861
261.129
276.554
279.064
263.027
270.158
257.011
261.613
284.843
263.657
276.162
290.165
273.752
287.123
290.657
294.843
282.08
318.606
309.014
298.123
330.307
317.74
308.31
301.896
306.734
292.545
299.237
295.492
309.249
300.955
298.931
302.403
322.742
311.805
319.398
320.06
313.814
323.483
314.916
329.956
326.262
320.254
327.843
320.347
326.156
333.944
329.141
333.149
343.065
331.644
329.741
330.357
325.182
333.286
343.798
338.404
340.882
338.477
343.688
341.694
342.659
344.434
343.531
349.761
348.43
352.583
348.455
340.857
349.742
346.445
346.98
348.253
0.572504
1.12723
1.45963
0.30873
0.297806
0.381684
0.773978
0.537604
0.967634
3.12881
3.5184
4.68754
5.39391
5.40932
5.91526
5.6955
5.5234
6.51964
2.90755
2.9437
3.25889
2.89516
2.10979
2.61351
2.96056
2.34361
2.92867
2.02863
22.4201
201.778
278.919
301.153
100.829
282.63
191.847
184.017
263.782
137.004
151.99
168.27
137.677
63.6175
200.887
157.966
207.559
179.064
204.126
194.182
71.5076
69.2115
152.12
147.674
256.245
260.628
281.652
277.358
252.066
258.141
268.982
270.053
264.424
264.37
259.123
262.842
271.124
284.665
262.848
287.726
288.89
278.284
286.495
293.137
276.085
285.944
315.051
298.426
319.794
325.882
305.199
307.473
309.992
306.699
311.256
299.77
310.937
310.529
308.078
300.637
318.66
325.074
327.264
323.852
323.459
315.995
306.747
316.94
324.758
323.867
329.447
326.137
313.509
331.031
342.371
327.596
344.068
338.944
328.337
329.022
331.398
321.585
330.35
341.771
342.696
339.332
341.683
343.337
342.808
342.921
341.564
343.996
340.608
349.529
354.403
345.794
345.898
350.249
348.168
348.435
0.271533
0.213583
0.0553876
0.0299083
0.0617781
0.0449037
0.0602
0.0530572
0.267558
0.394242
0.205851
0.331241
0
0
2.07613
2.16279
1.41121
2.26482
1.24329
2.74955
4.12912
3.82697
2.04115
3.78843
4.25609
4.67896
9.19774
8.46627
17.5174
24.8165
22.2798
264.317
97.2968
93.5588
75.876
72.557
204.928
237.46
177.119
82.9059
133.269
72.103
175.721
160.757
167.165
172.622
56.7638
49.4951
63.9586
41.9343
52.9981
41.0843
211.992
187.618
247.277
241.889
233.485
238.693
246.095
233.342
250.56
250.287
253.272
253.378
239.263
271.739
249.689
262.287
281.044
283.658
285.901
283.113
282.543
265.478
269.869
316.561
322.886
325.748
332.078
300.9
304.99
305.043
309.007
306.681
304.67
311.105
286.034
315.207
320.176
328.911
346.781
330.618
327.952
327.555
332.155
306.224
319.106
322.301
325.002
328.694
328.614
307.296
327.219
335.309
331.091
345.542
332.784
331.27
339.478
331.727
337.782
331.343
335.199
342.608
342.173
342.69
346.239
342.111
343.8
339.557
339.18
337.236
345.377
350.406
347.62
342.886
343.604
344.695
0.0660693
0.0635441
0.0565056
0.0452716
0.617668
0.657978
0.711503
1.01588
0.963297
1.1086
1.24904
1.09903
1.55746
1.11657
1.29901
1.7579
0.360076
1.33353
1.24391
1.61577
4.17877
3.5971
4.94986
3.44681
7.66493
5.90871
8.69411
7.84682
9.78632
11.7729
11.5694
17.5523
40.9138
55.8262
42.4817
46.6593
51.3889
224.57
64.2188
71.972
67.87
64.4724
88.9044
51.0822
51.4078
48.2769
45.8272
47.4346
44.2315
147.758
151.515
168.202
206.809
225.529
233.2
232.692
235.704
223.66
226.589
219.968
249.003
240.305
259.258
258.568
262.879
237.952
267.174
226.38
244.992
267.557
267.558
274.07
270.562
271.569
260.68
263.258
296.258
313.393
326.329
321.229
301.533
300.882
297.74
307.593
303.083
304.055
279.555
283.506
324.211
307.575
336.073
335.213
308.034
323.138
326.315
328.17
327.744
319.366
323.474
324.826
329.733
326.349
332.136
330.288
325.841
333.777
337.019
328.135
337.679
334.87
335.137
335.593
331.151
336.342
341.57
341.167
343.895
345.649
348.623
342.707
344.026
337.378
337.158
347.095
348.036
347.587
351.127
342.361
0.135593
0.0538743
0.0351907
0.0857939
0.148604
0.0684311
0.296476
0.350372
0.317608
0.283626
0.351818
0.34424
0.715757
0.33804
0.971613
0.313194
0.161175
0.387772
1.57338
0.944126
8.17787
3.86197
7.7422
5.67418
5.81823
6.0018
5.01048
5.70897
5.36504
5.97113
8.45751
24.5772
41.5069
44.4043
52.2376
52.8059
57.6632
57.1878
61.5923
54.4727
58.1196
51.9622
46.2404
55.7403
165.812
154.002
168.642
191.916
139.659
185.7
103.397
128.585
222.523
206.14
241.065
227.479
235.17
230.205
231.154
235.588
237.171
237.312
255.688
255.173
263.266
259.88
276.608
267.05
277.013
246.017
262.969
262.999
255.357
267.596
287.181
242.949
267.72
289.483
289.649
326.977
303.852
304.196
309.126
297.35
306.908
297.668
273.057
271.986
317.324
319.029
326.238
338.775
314.894
310.15
327.728
323.666
318.088
326.802
328.599
323.333
328.299
329.589
332.459
333.069
329.316
326.609
326.693
338.835
346.209
340.018
340.573
337.172
335.397
332.203
340.725
341.273
343.511
343.792
346.279
348.702
345.575
345.954
344.782
339.608
349.511
346.713
352.133
348.948
0.176067
0.165072
0.0483824
0.0623401
0.0587032
0.0593258
0.257668
0.257885
0.29032
0.284509
0.298599
0.248783
0.271073
0.286722
0.749143
1.1471
0.991131
1.31341
1.98118
1.76225
4.43624
7.74643
3.6232
5.57783
3.38136
4.65405
4.38367
4.96218
6.299
8.82976
20.1801
27.5727
36.2324
39.271
45.2461
42.1701
48.0532
39.6508
42.3145
44.5792
44.3049
48.9307
48.4716
49.0871
43.1198
51.7369
213.477
235.453
205.103
226.782
84.2762
47.2639
181.099
50.4808
221.255
192.562
238.419
246.555
239.332
247.124
233.264
238.046
247.797
245.93
256.906
259.625
266.309
277.33
275.717
281.45
276.114
275.077
280.168
263.711
281.891
294.038
289.369
284.259
296.661
299.083
305.345
299.33
308.503
303.319
306.625
303.592
282.807
267.63
294.841
320.151
325.06
329.737
322.248
311.357
324.806
326.148
322.296
315.497
318.269
326.015
329.433
326.326
330.559
330.059
322.439
328.263
331.141
324.392
342.706
340.984
332.233
338.84
338.105
333.158
339.382
339.481
341.805
342.334
344.082
345.456
344.083
343.986
344.016
342.666
350.748
348.108
351.493
351.595
0.112483
0.178627
0.168519
0.182533
0.182667
0.191178
0.180318
0.191392
0.230294
0.219175
0.230773
0.192863
0.206169
0.220456
0.410508
0.455911
1.27028
0.628851
1.36828
1.65126
1.62504
2.93245
2.87629
1.85464
3.3791
3.20147
4.84217
6.98385
9.08492
18.4695
27.4526
30.5669
36.4922
33.6512
38.184
33.9768
38.0685
27.2949
36.0253
36.7566
38.9014
42.1925
40.8214
42.195
41.522
10.7468
188.743
214.562
226.106
207.063
161.515
59.0494
150.621
58.3526
200.487
228.38
239.452
244.733
242.724
233.411
245.631
249.725
247.594
251.141
257.265
254.882
252.611
267.912
269.707
275.843
278.245
273.451
285.374
274.775
278.136
281.651
286.008
286.01
293.145
295.417
303.809
303.408
310.079