# vtk DataFile Version 3.0
vtk output
ASCII
DATASET POLYDATA
POINTS 24578 float
-151.53 81.83 75.23
-146.76 79.98 77.9
-147.26 82.51 76.57
-151.22 79.35 76.36
-146.3 77.32 78.47
-150.76 76.75 77.01
-146.01 74.82 79.56
-150.4 74.19 77.98
-145.43 72.07 79.86
-149.95 71.56 78.66
-145.02 69.6 80.58
-149.55 69.11 79.46
-144.64 67.21 81.53
-149.14 66.64 80.2
-144.27 64.77 82.34
-148.68 64.12 80.8
-144.06 62.18 83.1
-148.26 61.63 81.51
-143.83 59.57 83.96
-148.2 59.14 82.73
-143.54 56.98 84.63
-148.02 56.58 83.6
-143.3 54.28 84.95
-147.52 53.77 83.62
-142.71 51.53 84.98
-147.03 50.98 83.68
-142.34 49.05 85.71
-146.66 48.52 84.06
-142.24 46.57 86.6
-146.26 46.05 84.34
-145.97 43.63 84.94
-141.82 44.09 87.11
-141.56 41.44 87.04
-145.67 41.21 85.5
-140.98 38.76 87.5
-145.29 38.66 85.7
-140.75 36.16 87.85
-144.89 36.1 85.85
-144.62 33.53 86.3
-140.46 33.57 88.45
-140.13 30.94 88.56
-144.22 30.94 86.41
-143.81 28.2 86.49
-139.84 28.2 88.9
-143.44 25.45 86.68
-139.6 25.51 89.44
-143.18 22.67 87.12
-139.22 22.78 89.44
-142.9 19.88 87.51
-138.79 20.04 89.71
-142.6 17.15 87.83
-138.39 17.32 89.75
-137.91 14.61 89.73
-142.25 14.42 88.03
-141.99 11.68 88.46
-137.6 11.89 89.94
-141.61 8.95 88.57
-137.22 9.16 90.05
-141.13 6.27 88.48
-136.86 6.45 90.3
-140.68 3.58 88.47
-136.37 3.76 90.16
-140.25 0.89 88.51
-135.88 1.07 90.03
-139.71 -1.79 88.26
-135.64 -1.76 90.02
-135.64 -4.55 89.75
-140 -4.44 88.09
-135.69 -7.09 89
-140.34 -7.12 88.03
-135.79 -9.62 88.23
-140.37 -9.69 87.25
-135.84 -12.19 87.54
-140.43 -12.27 86.54
-135.99 -14.75 87
-140.5 -14.79 85.8
-136.21 -17.35 86.64
-140.62 -17.33 85.19
-136.42 -19.93 86.21
-140.85 -19.94 84.82
-136.49 -22.42 85.34
-140.79 -22.34 83.7
-136.45 -24.91 84.43
-140.78 -24.79 82.73
-136.55 -27.44 83.74
-140.84 -27.3 81.99
-136.57 -29.97 82.98
-140.97 -29.86 81.42
-136.73 -32.54 82.43
-141.02 -32.36 80.63
-136.76 -35.12 81.64
-141.09 -34.97 79.94
-141.32 -37.69 79.69
-136.83 -37.72 80.96
-141.45 -40.33 79.13
-136.9 -40.34 80.32
-137.11 -43 79.41
-141.48 -42.91 78.35
-141.57 -45.38 77.61
-137.04 -45.54 78.64
-141.59 -47.8 76.7
-137.03 -47.91 77.56
-141.86 -50.43 76.49
-137.15 -50.39 76.9
-141.9 -52.84 75.63
-137.27 -52.84 76.11
-141.91 -55.11 74.4
-137.53 -55.19 75.26
-137.48 -57.49 74.21
-141.9 -57.35 73.07
-142.03 -59.74 72.14
-137.7 -59.92 73.43
-142.25 -62.22 71.44
-137.97 -62.48 72.92
-142.57 -64.67 70.67
-138.15 -65.14 72.4
-142.87 -67.1 69.86
-138.34 -67.41 71.12
-143.16 -69.56 69.09
-138.58 -69.8 70.17
-143.42 -71.97 68.22
-138.72 -72 68.84
-143.42 -74.03 66.78
-138.71 -74.17 67.59
-143.52 -76.26 65.69
-138.9 -76.5 66.65
-143.64 -78.59 64.8
-139.03 -78.91 65.88
-143.64 -80.66 63.43
-139.36 -81.09 64.3
-142.41 80.53 78.87
-142.88 83.09 77.59
-141.83 77.87 79.86
-141.49 75.33 80.8
-140.97 72.61 81.19
-140.47 70.13 81.77
-140.01 67.69 82.47
-139.94 65.21 83.59
-139.84 62.72 84.64
-139.44 60.04 85.13
-139.12 57.42 85.86
-138.88 54.8 86.42
-138.56 52.14 86.78
-138.19 49.56 87.25
-137.83 46.99 87.76
-137.58 44.31 88.01
-137.31 41.63 88.23
-137.03 38.95 89.21
-136.57 36.22 89.77
-136.22 33.57 90.06
-135.88 30.91 90.36
-135.74 28.24 91.1
-135.47 25.56 91.56
-134.94 22.88 91.41
-134.47 20.19 91.43
-134.08 17.49 91.57
-133.61 14.8 91.52
-133.09 12.1 91.2
-132.71 9.37 91.23
-132.3 6.67 91.32
-131.94 3.96 91.53
-131.76 1.11 91.67
-131.5 -1.71 91.62
-131.31 -4.41 90.89
-131.1 -7.09 90.13
-131.35 -9.7 89.79
-131.55 -12.29 89.33
-131.63 -14.81 88.62
-131.74 -17.34 87.96
-131.85 -19.85 87.19
-132.06 -22.42 86.66
-132.19 -25.02 86.17
-132.25 -27.57 85.48
-132.26 -30.09 84.65
-132.44 -32.72 84.26
-132.56 -35.36 83.72
-132.63 -37.97 83.04
-132.75 -40.58 81.94
-132.83 -43.16 80.72
-132.77 -45.71 79.94
-132.75 -48.3 79.25
-132.77 -50.64 78.12
-132.8 -52.99 77
-132.95 -55.32 76.2
-133.13 -57.69 75.53
-133.33 -60.11 74.69
-133.5 -62.48 73.72
-133.64 -65.09 73
-133.72 -67.59 72.04
-133.86 -69.81 70.74
-134.01 -72.03 69.43
-134.18 -74.44 68.63
-134.35 -76.86 67.84
-134.77 -79.33 66.76
-135.07 -81.54 65.2
-138.04 81.11 79.93
-138.51 83.66 78.64
-137.48 78.45 80.95
-136.81 75.7 81.58
-136.53 73.2 82.68
-136.2 70.85 83.66
-136.01 68.35 84.53
-135.78 65.76 85.17
-135.49 63.19 85.82
-135.19 60.56 86.38
-134.98 57.99 87.45
-134.76 55.37 88.25
-134.53 52.77 88.88
-134 50.11 89.1
-133.65 47.3 89.03
-133.3 44.56 89.42
-133.29 41.92 90.17
-132.89 39.2 91
-132.5 36.43 91.58
-132.05 33.68 92.21
-131.7 30.98 92.36
-131.44 28.31 92.66
-131.04 25.67 93.02
-130.62 23.02 93.01
-130.15 20.36 93.11
-129.82 17.66 93.35
-129.27 14.97 93.05
-128.74 12.27 92.73
-128.4 9.55 92.87
-127.96 6.85 92.86
-127.84 4 93.22
-127.59 1.17 93.17
-127.27 -1.64 92.97
-127.25 -4.36 92.57
-127.15 -7.08 92.07
-127.17 -9.83 91.83
-127.29 -12.38 91.16
-127.29 -14.86 90.23
-127.44 -17.42 89.6
-127.57 -19.97 88.96
-127.76 -22.53 88.35
-127.82 -25.1 87.72
-127.85 -27.64 86.95
-127.95 -30.27 86.46
-128.2 -32.95 86.24
-128.25 -35.54 85.49
-128.5 -38.26 84.8
-128.59 -40.83 83.55
-128.62 -43.36 82.3
-128.5 -45.86 81.36
-128.57 -48.51 80.64
-128.51 -50.96 79.6
-128.63 -53.39 78.68
-128.82 -55.89 78.24
-129.15 -58.39 77.85
-129.06 -60.46 76.29
-128.99 -62.4 74.44
-128.98 -64.79 73.19
-129.01 -67.15 71.96
-128.97 -69.58 70.84
-129.28 -72.05 69.98
-129.48 -74.55 69.36
-130.01 -77.21 68.65
-130.42 -79.71 67.63
-130.79 -82.03 66.21
-133.82 81.84 81.46
-134.36 84.47 80.38
-133.19 79.09 82.22
-132.49 76.28 82.7
-131.95 73.65 83.71
-131.93 71.29 85
-131.87 68.9 86.17
-131.5 66.27 86.57
-131.13 63.64 86.94
-130.87 61.02 87.58
-130.68 58.45 88.47
-130.46 55.86 89.34
-130.18 53.24 90.02
-129.88 50.44 90.31
-129.64 47.69 90.79
-129.42 44.94 91.36
-129.23 42.2 92.03
-128.71 39.37 92.41
-128.45 36.65 93.48
-128.03 33.86 94.03
-127.47 31.03 94.24
-127.19 28.41 94.71
-126.88 25.78 95.12
-126.32 23.16 94.88
-125.8 20.53 94.74
-125.36 17.84 94.64
-124.86 15.16 94.43
-124.49 12.44 94.52
-124.2 9.71 94.8
-123.95 6.88 94.78
-123.68 4.05 94.73
-123.4 1.23 94.62
-123.18 -1.6 94.69
-123.37 -4.41 94.84
-123.31 -7.12 94.32
-123.16 -9.79 93.63
-122.95 -12.42 92.76
-123.09 -14.99 92.12
-123.27 -17.57 91.56
-123.4 -20.13 90.9
-123.5 -22.66 90.14
-123.53 -25.22 89.42
-123.57 -27.78 88.7
-123.68 -30.42 88.22
-123.74 -33.02 87.62
-123.94 -35.69 86.77
-124.14 -38.36 85.91
-124.27 -40.96 84.88
-124.51 -43.67 84.17
-124.44 -46.18 83.04
-124.36 -48.68 81.9
-124.32 -51.14 80.87
-124.34 -53.66 80.01
-124.65 -56.22 79.72
-124.85 -58.64 79.12
-124.76 -60.62 77.46
-124.57 -62.46 75.52
-124.49 -64.69 73.94
-124.51 -67.1 72.74
-124.57 -69.65 71.8
-124.65 -72.26 70.99
-125.14 -74.86 70.13
-125.57 -77.36 69.04
-126.01 -79.84 67.96
-126.39 -82.16 66.58
-129.58 82.52 82.46
-130.23 85.32 82
-128.9 79.77 83.09
-128.4 77.11 83.84
-127.98 74.41 84.96
-127.56 71.77 85.9
-127.33 69.24 86.57
-127.15 66.76 87.43
-126.86 64.14 88.01
-126.52 61.49 88.81
-126.36 58.96 89.84
-126.14 56.38 90.8
-125.97 53.53 91.15
-125.51 50.64 91.5
-125.42 47.93 92.31
-125.22 45.19 93.14
-125.05 42.45 93.81
-124.64 39.66 94.38
-124.31 36.88 95.2
-123.77 34.05 95.42
-123.26 31.23 95.69
-122.78 28.52 96.11
-122.44 25.87 96.38
-121.98 23.27 96.26
-121.42 20.65 96.06
-121.04 17.96 96.08
-120.68 15.29 96.36
-120.38 12.57 96.56
-120.17 9.75 96.72
-119.91 6.93 96.66
-119.55 4.12 96.37
-119.27 1.3 96.28
-119.07 -1.54 96.32
-119.25 -4.36 96.51
-119.22 -7.1 96.08
-119.04 -9.77 95.31
-119 -12.5 94.8
-118.91 -15.21 94.19
-119.08 -17.79 93.59
-119.2 -20.38 92.98
-119.3 -22.91 92.18
-119.31 -25.47 91.43
-119.31 -28 90.63
-119.33 -30.55 89.87
-119.45 -33.15 88.84
-119.6 -35.8 87.91
-119.83 -38.5 87.17
-120.05 -41.2 86.43
-120.26 -43.87 85.57
-120.32 -46.42 84.63
-120.24 -48.94 83.59
-120.24 -51.46 82.7
-120.29 -53.99 81.83
-120.1 -56.26 80.6
-120.22 -58.48 79.45
-120.33 -60.66 78.2
-120.24 -62.81 76.84
-120.26 -65.2 75.6
-120.18 -67.48 74.2
-120.23 -70.02 73.25
-120.52 -72.67 72.16
-120.81 -75.19 70.96
-121.18 -77.58 69.65
-121.52 -79.9 68.24
-121.92 -82.27 66.97
-125.25 83.17 83.41
-125.88 85.88 82.84
-124.6 80.45 83.94
-124.22 77.72 84.75
-123.94 75.09 85.93
-123.46 72.43 86.81
-122.93 69.71 87.46
-122.73 67.14 88.15
-122.59 64.64 89.06
-122.25 62 89.9
-121.95 59.4 90.9
-121.96 56.7 91.92
-121.73 53.8 92.2
-121.47 50.99 93.04
-121.27 48.22 94.07
-121.07 45.45 94.8
-120.88 42.69 95.58
-120.53 39.9 96.26
-120.06 37.06 96.59
-119.52 34.23 96.77
-119.19 31.45 97.53
-118.64 28.71 97.7
-118.07 25.97 97.81
-117.65 23.36 97.86
-117.2 20.75 97.82
-116.76 18.09 97.81
-116.45 15.42 98.16
-116.25 12.62 98.27
-115.94 9.82 98.09
-115.72 7.01 98.16
-115.43 4.19 98.08
-115.24 1.34 98.13
-115.02 -1.5 98.11
-115.03 -4.27 97.86
-115.05 -7.04 97.62
-115.01 -9.78 97.12
-114.91 -12.5 96.46
-114.83 -15.21 95.87
-114.79 -17.94 95.36
-114.95 -20.55 94.79
-115.09 -23.14 94.17
-115.09 -25.69 93.41
-115.09 -28.25 92.66
-115.19 -30.82 91.55
-115.34 -33.43 90.58
-115.56 -36.16 89.86
-115.65 -38.76 88.81
-115.73 -41.32 87.6
-115.89 -43.96 86.62
-115.94 -46.5 85.75
-115.97 -49.02 84.82
-116.06 -51.62 84.1
-116.16 -54.22 83.41
-116 -56.46 81.98
-115.78 -58.59 80.34
-115.73 -60.7 78.9
-115.82 -63.01 77.89
-115.91 -65.56 77.02
-115.85 -67.86 75.66
-116.07 -70.39 74.35
-116.45 -73.24 73.66
-116.73 -75.78 72.45
-116.87 -78.01 70.66
-117.13 -80.1 68.85
-117.46 -82.37 67.36
-120.93 83.58 83.84
-121.35 86.18 83.25
-120.43 80.92 84.76
-120.24 78.29 85.68
-119.85 75.73 86.84
-119.39 73.08 87.68
-118.97 70.39 88.56
-118.52 67.71 89.38
-118.27 65.1 89.93
-117.89 62.43 90.71
-117.77 59.68 91.68
-117.62 56.89 92.64
-117.53 54.11 93.38
-117.25 51.28 94.27
-116.99 48.44 95.07
-116.61 45.56 95.63
-116.37 42.76 96.18
-116.01 39.98 96.85
-115.62 37.17 97.41
-115.23 34.39 98.02
-114.97 31.62 98.96
-114.53 28.91 99.33
-113.9 26.15 99.26
-113.4 23.47 99.53
-113.04 20.85 99.72
-112.61 18.2 99.71
-112.34 15.45 99.77
-112.11 12.66 99.75
-111.7 9.9 99.43
-111.54 7.08 99.65
-111.31 4.26 99.65
-111.1 1.42 99.6
-110.91 -1.42 99.76
-110.84 -4.17 99.3
-110.76 -6.92 98.71
-110.8 -9.71 98.47
-110.76 -12.46 97.96
-110.67 -15.19 97.39
-110.65 -17.93 96.92
-110.56 -20.62 96.27
-110.66 -23.19 95.59
[...]
CELL_DATA 49152
SCALARS Temperature float 1
LOOKUP_TABLE default
289.468
294.596
297.8
293.5
290.612
298.663
301.163
279.36
278.779
273.267
272.054
286.053
285.596
298.529
297.658
302.855
301.842
276.83
281.759
266.111
270.388
291.95
292.312
289.041
288.268
304.272
301.808
330.018
328.971
324.307
325.454
300.789
301.841
310.027
308.389
320.371
317.641
320.776
324.63
326.064
326.397
333.62
334.996
342.978
343.686
333.138
331.238
326.298
325.75
316.623
317.091
305.897
304.334
295.58
296.136
296.143
297.182
311.228
312.329
307.223
306.621
299.337
299.867
313.355
314.009
304.763
308.885
266.088
271.855
272.489
272.28
273.065
272.358
285.259
283.561
298.199
297.345
293.887
295.593
308.814
308.776
311.143
310.493
313.228
313.268
303.652
303.448
315.495
315.466
311.046
308.666
289.582
288.83
284.401
285.014
281.733
281.61
279.417
280.657
271.33
262.79
229.126
231.178
238.621
243.638
270.91
272.39
288.786
287.451
295.243
294.733
303.12
304.456
311.838
313.785
295.215
292.092
283.456
282.815
253.138
254.342
268.206
267.121
277.394
276.986
283.471
287.443
285.635
268.879
265.143
267.427
290.361
288.011
277.908
282.668
288.617
287.687
278.219
278.656
259.876
258.725
282.553
280.181
299.551
301.235
277.648
278.412
281.04
281.76
294.998
295.041
313.179
313.11
301.638
302.211
276.249
279.834
262.947
266.065
285.713
282.577
306.645
311.226
313.961
312.676
302.678
304.403
310.096
309.629
321.481
323.676
321.487
325.561
317.605
316.414
307.858
307.2
311.506
311.934
310.844
311.825
283.743
284.454
279.746
278.846
269.992
271.256
290.104
291.741
306.808
307.704
305.975
308.092
282.071
283.807
281.646
279.43
303.508
302.097
314.109
314.119
305.982
306.404
290.307
292.076
270.787
271.464
292.786
291.567
313.287
312.748
312.354
312.905
309.928
308.349
315.409
315.32
325.936
325.562
325.703
326.316
311.178
312.632
296.55
296.41
296.277
297.693
313.724
313.347
294.479
292.196
276.044
273.3
274.828
276.292
296.279
296.437
293.678
291.468
264.838
261.925
247.178
250.121
273.742
273.574
248.681
249.026
251.228
251.618
282.182
283.085
290.179
290.041
281.304
286.014
287.303
270.712
271.43
273.047
275.245
276.967
244.478
242.418
296.358
292.987
314.782
313.31
324.127
324.033
300.39
303.234
276.883
280.6
286.823
283.47
303.717
303.184
313.732
313.424
324.965
325.056
313.881
314.615
287.946
288.621
294.038
289.683
320.318
315.359
308.602
310.687
312.106
313.839
321.518
323.485
319.517
313.835
299.366
297.825
292.843
295.531
303.847
302.766
306.287
305.652
309.841
311.953
300.167
301.168
301.139
299.799
304.364
304.604
300.551
299.329
307.573
309.04
301.205
301.217
294.353
295.044
312.32
312.072
323.579
322.582
322.63
323.808
314.828
316.146
306.38
306.122
308.165
308.071
313.864
313.233
309.698
310.174
302.953
304.151
300.102
299.258
316.091
313.884
319.36
322.085
312.935
313.179
316.784
318.208
311.916
312.267
309.748
309.181
301.684
300.872
301.537
302.977
307.664
306.614
317.663
316.328
326.494
328.348
335.561
340.506
312.053
310.675
258.852
257.534
196.567
194.313
124.305
119.507
186.279
189.725
244.389
243.778
257.496
258.932
270.303
274.955
278.147
283.163
292.233
311.066
299.725
301.757
286.903
288.54
279.279
277.747
263.937
260.803
286.296
283.644
304.271
306.879
292.788
294.169
276.331
276.36
282.148
279.734
268.456
269.737
274.962
275.742
277.715
279.516
287.114
285.229
314.545
312.127
322.146
319.274
313.342
312.849
295.434
293.284
311.341
315.616
313.485
315.668
314.702
313.099
317.484
318.706
321.089
324.398
313.938
314.397
303.651
304.338
285.51
288.043
293.259
291.641
312.93
311.337
316.169
317.611
320.16
317.688
301.912
301.853
299.179
299.844
311.039
309.354
333.954
334.165
334.313
334.521
316.813
317.178
305.744
305.707
319.413
318.437
321.545
321.55
320.975
321.304
314.255
314.763
310.758
311.123
313.481
312.276
313.019
311.249
294.896
295.477
294.006
294.218
283.658
285.453
297.063
295.52
322.265
322.268
316.906
317.37
295.189
296.532
297.538
297.144
299.636
296.305
303.335
303.81
294.023
296.864
290.619
289.653
281.761
283.494
260.361
260.012
263.71
263.095
277.328
276.565
278.61
277.005
269.505
267.361
239.178
238.177
233.055
238.086
241.06
307.591
274.595
274.178
264.902
264.892
285.911
286.835
293.519
293.587
257.522
262.398
201.745
206.435
261.595
260.748
276.853
274.844
282.848
279.668
289.056
288.603
293.524
296.121
277.127
280.517
281.002
275.2
298.239
297.481
306.429
307.669
307.901
311.372
318.606
314.35
305.442
307.846
293.676
293.344
297.526
295.074
289.922
289.371
283.14
286.565
294.557
294.507
290.614
289.569
296.826
297.791
316.649
317.447
321.555
321.14
318.661
319.672
318.284
319.39
307.924
308.165
308.89
307.946
307.189
305.446
306.598
310.239
314.491
314.757
311.375
311.143
327.104
326.93
325.216
324.916
323.429
323.659
325.392
325.844
324.615
324.668
323.41
323.66
320.138
320.273
307.569
308.993
290.729
292.085
286.698
286.236
293.192
292.65
308.612
307.874
300.236
301.466
311.81
311.708
315.736
315.271
321.789
321.537
321.545
318.223
270.477
267.192
221.272
222.162
264.891
264.283
301.308
301.507
318.14
318.136
307.675
306.56
305.576
304.783
297.31
295.458
277.098
275.958
261.33
258.798
229.763
229.238
240.03
260.438
269.332
269.398
263.45
263.423
268.359
266.856
275.158
275.449
270.105
270.558
261.059
261.027
244.07
243.632
274.675
273.354
276.158
274.771
268.406
268.565
274.208
280.513
274.444
270.405
304.438
300.548
305.251
306.819
303.365
303.715
306.731
309.264
313.361
312.18
292.942
294.162
291.98
291.893
312.118
314.583
304.884
303.941
294.556
294.658
303.782
303.383
312.286
311.14
309.201
307.553
310.44
311.164
309.517
311.388
292.957
294.342
300.112
301.062
311.892
311.032
316.795
316.863
314.677
315.477
291.177
293.934
304.195
304.38
317.73
317.673
310.999
311.092
312.041
311.821
313.1
312.963
315.325
315.327
322.836
322.835
322.271
322.27
324.181
324.485
314.246
314.615
317.46
316.233
325.697
326.074
311.692
313.103
288.183
289.002
281.242
281.599
285.046
285.104
292.192
291.944
301.296
301.839
309.92
310.374
303.355
302.541
274.441
275.345
260.053
260.871
284.761
285.208
303.688
305.099
307.703
306.322
294.581
293.457
310.818
314.43
314.186
316.232
290.097
292.425
261.863
260.606
242.437
210.89
220.11
217.162
261.173
258.29
272.338
270.741
269.194
270.098
267.91
267.92
284.857
284.66
285.947
286.726
259.178
260.702
254.501
253.544
249.58
250.543
238.264
243.251
283.693
279.094
281.612
279.395
266
268.938
249.367
252.405
225.708
228.137
227.654
229.817
255.181
257.553
282.643
280.787
289.193
296.5
305.808
307.268
299.309
298.601
305.841
307.442
316.086
317.269
317.341
315.327
306.292
305.778
300.594
302.699
293.686
292.02
298.839
300.832
304.683
304.304
300.225
300.106
307.172
309.6
298.705
299.846
279.246
279.132
295.304
295.34
303.546
303.41
304.316
303.97
306.11
306.491
299.845
300.396
296.79
297.416
296.938
296.667
301.612
301.837
312.754
312.332
312.892
311.592
312.47
314.019
305.932
306.388
295.666
295.265
293.111
293.004
292.467
292.805
290.03
289.138
285.279
284.805
277.65
278.676
295.566
295.558
302.262
302.866
313.074
312.64
306.026
304.898
287.528
288.049
288.131
288.128
275.816
271.012
262.987
265.737
286.182
290.265
279.579
279.892
275.513
273.763
258.51
222.065
248.765
246.06
243.773
243.377
242.857
242.087
233.147
234.067
246.029
244.721
267.686
267.41
278.434
279.001
271.088
269.197
281.412
281.345
265.09
266.635
256.167
258.039
261.331
260.274
261.86
265.068
248.016
253.33
240.753
239.635
248.155
246.593
263.297
267.957
274.942
275.787
290.811
290.466
268.541
269.856
271.055
274.435
283.349
281.051
282.329
282.598
292.485
295.704
307.204
308.502
307.473
308.53
301.59
302.394
312.9
309.864
305.265
305.959
301.311
300.849
298.157
296.441
276.393
276.287
287.609
287.386
297.899
297.011
291.291
292.064
297.159
296.422
309.52
308.055
320.164
320.522
321.899
321.682
303.947
304.156
300.731
300.815
293.208
293.723
295.277
295.593
294.354
293.947
284.516
286.245
290.259
290.24
302.795
302.289
304.015
303.879
301.864
302.258
300.048
299.872
292.389
292.429
282.278
282.24
295.156
295.173
311.547
311.812
318.884
318.786
307.104
307.425
295.901
296.418
298.547
299.667
279.413
275.29
218.372
213.255
130.794
129.355
211.997
217.422
275.201
277.497
302.208
258.636
293.159
292.908
294.032
294.696
278.79
277.871
278.238
279.977
260.269
262.765
198.53
202.441
178.461
171.069
279.412
273.66
286.965
290.507
278.288
279.842
266.06
267.739
263.764
262.956
265.257
266.942
278.57
276.512
302.661
300.639
306.298
304.073
300.776
302.112
303.063
301.215
298.644
301.212
295.69
295.661
306.713
309.857
321.957
322.295
304.136
301.865
286.662
284.966
287.478
289.924
298.701
301.896
303.416
303.721
306.467
304.836
302.291
303.825
316.165
318.567
312.633
312.567
304.714
303.954
300.601
301.222
300.104
299.906
298.206
298.566
298.651
298.097
300.12
299.933
295.275
295.834
310.6
310.731
325.18
325.261
320.493
320.902
301.777
301.723
298.809
298.922
302.307
302.205
296.965
297.568
298.609
298.408
307.962
308.004
297.255
297.254
297.504
297.641
301.164
300.493
305.766
306.265
301.63
302.299
280.265
280.784
296.827
297.253
295.157
295.547
285.502
285.16
290.978
290.795
287.161
289.187
291.467
289.46
291.391
291.732
288.154
287.433
285.133
283.94
285.927
285.717
281.257
247.012
211.456
215.088
222.181
222.478
246.556
245.447
221.455
221.242
266.362
265.563
287.634
286.395
293.101
290.536
272.926
275.534
268.888
273.618
305.373
311.545
327.521
330.659
324.093
321.8
300.98
297.658
299.85
299.212
298.457
299.695
295.365
294.571
294.692
295.658
298.677
297.869
282.955
284.243
295.971
295.668
308.066
312.221
307.397
308.697
304.506
303.001
303.245
301.558
305.778
306.734
297.724
298.735
296.843
296.205
300.21
299.923
301.038
299.522
303.585
308.354
305.113
305.506
305.596
304.841
304.644
305.257
301.567
301.771
295.873
295.434
303.316
302.732
303.031
304.079
289.095
290.76
253.445
253.975
281.544
280.48
308.506
308.502
315.423
315.241
309.604
309.49
309.716
309.899
306.375
306.398
315.026
314.899
313.104
313.175
318.429
318.229
318.202
318.207
317.532
317.886
305.255
305.884
307.05
307.284
313.359
312.587
301.429
301.614
293.797
294.326
312.647
312.279
306.97
307.326
301.657
302.087
311.104
310.589
298.45
299.803
320.767
323.89
334.642
337.982
304.012
305.207
266.209
180.415
137.255
135.517
195.018
194.258
219.21
211.007
265.373
262.744
273.109
273.288
288.905
288.822
309.023
310.837
306.814
307.169
312.159
310.567
316.258
318.504
314.04
317.78
321.4
323.09
324.57
324.662
304.168
305.653
293.84
294.152
301.348
300.102
285.963
283.394
282.049
283.22
284.698
284.126
282.44
278.732
254.581
257.533
259.212
259.824
298.198
296.283
313.087
313.525
305.543
306.523
296.66
296.388
294.376
292.541
289.01
287.686
286.302
283.009
274.055
278.816
283.703
284.838
291.569
290.676
297.39
297.099
307.49
307.117
310.483
310.191
303.717
304.414
295.715
296.138
305.835
306.256
313.32
313.629
283.231
283.026
282.021
282.158
312.654
312.688
314.877
314.676
313.065
313.283
312.921
312.808
312.567
312.658
314.254
314.177
317.007
317.155
308.826
308.941
306.102
306.272
304.592
304.79
298.527
298.72
304.238
304.103
305.573
306.039
305.644
305.513
306.176
306.592
307.766
307.799
309.583
309.515
309.5
309.322
312.684
308.633
287.14
284.739
290.089
294.475
316.349
315.781
291.758
235.728
280.807
283.245
283.076
283.881
277.193
275.592
278.693
282.215
252.922
254.257
260.556
257.092
284.142
291.733
299.795
300.567
313.383
313.254
307.023
309.085
286.973
286.344
291.497
296.881
324.831
331.411
349.131
351.988
344.712
345.721
316.84
317.162
310.812
308.502
292.258
290.756
289.612
289.096
284.69
283.983
265.927
265.921
269.496
270.677
283.922
283.116
278.543
280.453
259.698
258.551
272.807
272.757
280.755
280.712
280.717
279.548
278.32
276.717
268.043
270.616
284.598
286.967
296.892
296.429
302.914
303.757
298.338
298.306
303.93
304.47
295.301
296.055
284.767
283.949
289.671
290.871
293.791
294.214
299.036
298.342
290.644
290.775
288.52
289.038
302.138
301.872
309.1
309.166
311.544
311.62
307.018
307.241
303.286
303.448
298.435
298.582
298.915
298.897
296.55
296.575
300.925
300.911
298.492
298.48
297.379
297.502
296.959
297.5
298.841
298.604
299.914
300.258
302.822
302.84
304.441
304.595
300.669
300.881
293.278
293.878
280.011
276.221
255.293
256.496
274.299
275.121
296.552
246.28
242.016
249.027
273.359
280.786
303.081
303.059
293.182
296.907
297.75
294.036
293.891
281.898
261.708
266.108
266.373
260.904
273.288
278.291
245.507
250.655
271.435
274.315
309.475
314.616
333.752
343.943
349.601
357.497
350.89
347.692
321.4
319.696
305.328
303.822
307.09
306.198
296.602
295.229
289.687
290.474
286.559
285.484
272.99
269.495
249.306
245.34
214.177
218.645
254.722
257.958
275.671
277.991
288.352
289.507
295.4
295.53
296.255
296.473
292.497
291.767
293.324
294.349
299.568
300.738
295.523
297.897
294
293.913
288.568
289.593
295.399
296.219
290.722
289.79
281.489
283.745
272.316
272.151
290.983
289.868
297.073
296.821
296.81
297.209
297.671
297.662
300.152
300.533
301.016
301.329
299.074
299.186
296.844
296.989
292.269
292.119
299.757
299.635
302.809
302.846
292.874
292.834
295.878
295.857
293.495
293.512
293.749
293.807
300.826
300.904
296.499
296.685
298.086
298.149
297.176
297.223
298.872
298.853
296.499
296.607
290.409
289.758
273.938
275.997
260.071
261.328
289.958
186.166
229.594
237.589
266.019
272.73
274.647
280.79
285.628
291.246
306.226
307.93
314.534
313.225
306.228
306.94
304.446
296.817
221.768
208.641
231.46
235.363
278.577
276.538
274.729
265.33
278.253
289.679
284.727
299.015
290.776
293.048
293.163
293.441
269.407
266.148
258.688
258.495
255.425
254.231
244.321
244.566
248.565
249.377
253.481
252.928
260.814
262.775
280.219
281.41
301.969
306.049
317.873
320.805
317.91
317.912
304.217
302.726
305.022
305.957
303.635
302.405
296.84
295.766
292.32
294.289
283.494
284.516
292.275
291.064
298.057
298.372
300.777
299.774
320.42
319.863
314.046
315.338
306.674
306.224
302.197
302.356
293.333
293.608
291.136
291.826
285.657
285.545
288.085
288.873
279.278
279.437
280.048
279.753
288.301
287.898
300.263
300.17
295.567
295.773
289.729
289.829
296.91
296.675
300.407
300.729
289
288.878
289.512
289.048
296.918
297.459
291.741
291.819
289.196
289.336
287.026
287.036
289.154
289.114
296.635
296.599
301.446
301.311
292.641
293.552
289.441
289.485
291.062
157.636
214.104
220.016
182.602
188.799
167.02
177.252
216.549
224.169
275.581
285.77
300.606
305.504
305.808
306.868
287.591
288.218
299.912
295.731
298.607
295.139
243.521
226.178
53.0157
94.8772
82.1568
63.5144
66.1804
67.6193
174.945
195.844
233.446
208.18
276.476
270.624
272.624
277.799
238.626
238.586
230.955
229.812
245.288
249.203
269.651
271.591
284.686
285.701
290.029
287.34
288.374
289.905
290.636
295.125
290.92
292.161
297.644
296.231
290.668
291.317
290.123
289.761
289.811
289.403
286.275
286.972
293.987
292.267
304.161
304.254
298.757
299.437
303.091
301.655
306.583
308.627
298.024
299.063
303.731
302.988
304.426
304.484
302.332
302.558
294.814
295.444
295.144
295.045
289.712
290.529
295.828
295.864
292.972
293.018
286.748
286.331
294.208
294.492
293.779
293.908
290.936
289.87
305.155
305.686
291.396
291.778
285.915
285.624
286.356
286.422
276.005
276.655
289.741
289.775
285.927
285.995
287.981
287.954
288.092
288.018
290.95
290.744
301.003
301.129
290.689
290.646
295.932
295.724
296.031
26.2547
6.4319
2.49576
11.8951
18.9621
10.7972
22.1552
150.361
102.685
25.1909
20.8727
147.351
185.028
177.578
203.132
160.332
144.002
224.118
209.955
128.038
146.323
153.111
55.3816
61.8396
60.5186
85.6021
81.4618
90.5226
94.0564
94.5299
95.7942
100.362
77.3926
177.799
195.22
212.407
224.62
241.731
236.573
257.994
258.515
273.481
275.826
280.294
280.458
278.7
278.481
274.941
270.829
248.399
245.314
228.797
235.613
254.179
257.882
264.431
263.86
258.347
258.917
272.346
273.435
273.738
273.95
273.868
272.716
287.97
285.858
291.451
293.202
294.645
294.85
293.294
293.268
283.971
284.291
312.176
312.405
314.36
314.532
292.814
292.667
292.698
292.878
291.149
291.074
295.814
294.193
312.451
312.674
318.57
318.224
305.359
305.258
304.952
304.954
284.47
284.766
287.637
287.856
291.472
291.54
270.489
271.882
281.349
281.25
297.152
296.944
295.487
295.661
287.579
287.698
280.492
280.716
289.455
289.429
290.047
290.222
285.075
285.168
279.688
279.66
277.158
277.537
284.501
284.48
278.096
278.102
279.605
10.0514
2.07193
3.9506
4.59526
14.7659
15.7835
18.5483
23.204
23.1464
25.4262
28.5179
25.652
52.5032
25.4004
49.979
151.144
100.422
195.472
196.606
214.571
218.291
209.55
211.272
71.8675
61.5666
71.9353
67.1955
74.2361
72.9807
75.0726
75.1822
75.2737
71.4876
73.4722
84.0068
78.7037
84.9251
247.522
242.775
264.3
265.269
267.728
269.232
265.391
265.281
264.811
265.082
268.275
268.707
270.406
270.49
266.017
267.414
253.421
253.886
254.487
254.673
265.605
265.733
270.673
272.206
280.112
281.143
281.846
282.17
270.895
273.443
252.789
254.437
267.39
267.39
271.378
271.038
271.662
270.619
272.056
275.014
288.207
288.971
284.359
282.643
282.143
281.739
289.177
288.73
289.456
286.73
289.101
293.143
279.234
281.231
280.298
278.75
291.499
291.642
293.31
293.285
285.572
285.997
287.287
287.768
284.398
284.933
282.981
282.54
290.63
290.905
281.579
282.353
279.106
279.136
279.683
279.229
285.267
285.858
285.369
285.641
287.821
288.082
280.479
280.611
271.849
271.815
284.921
284.998
284.409
284.706
272.438
11.8029
11.1864
3.46023
14.7941
14.4127
10.8408
16.6494
16.6022
14.7229
15.1804
12.1605
12.9204
18.0811
12.6367
22.9635
10.5135
79.8468
235.316
251.129
283.781
291.259
249.546
252.228
80.1378
57.2088
59.3832
59.0448
51.7932
55.8481
47.8275
46.0697
45.241
245.365
250.864
251.733
262.106
261.485
266.967
268.461
262.203
261.789
258.276
260.048
273.736
275.552
278.558
278.871
269.733
268.512
251.857
250.313
246.779
250.101
262.667
264.506
276.175
276.552
280.28
280.322
276.953
277.034
276.913
278.152
278.68
279.241
277.534
278.768
273.207
274.196
256.192
257.873
257.877
257.128
264.69
266.606
234.877
237.306
256.725
256.762
290.929
289.065
289.32
289.705
280.791
281.909
274.433
271.668
270.975
275.668
277.281
277.803
290.404
289.122
285.178
286.757
282.706
282.196
290.406
290.557
285.513
286.008
287.304
287.574
288.204
287.848
285.134
285.13
297.242
297.642
290.831
290.867
286.962
286.772
283.153
283.97
284.642
284.861
285.212
285.418
288.49
288.249
288.705
288.589
282.197
283.135
279.265
279.703
274.925
13.5545
13.7213
3.36022
13.8265
10.7311
11.0873
16.9756
9.95752
11.8719
7.64993
8.16062
11.4511
7.96623
11.4302
17.9994
30.7897
23.7847
31.9812
46.6915
48.5353
64.2552
67.3099
57.7407
60.5748
48.3536
51.3438
49.669
45.5672
49.9652
48.8005
46.6833
249.91
252.035
259.86
260.183
255.158
252.93
236.261
236.662
245.859
247.464
258.942
260.17
264.541
267.306
279.746
283.293
266.211
264.766
245.102
240.918
243.403
245.188
267.514
270.835
285.534
287.49
280.943
280.58
273.639
272.724
268.582
269.249
271.154
271.936
273.344
273.821
280.126
280.015
283.331
282.845
282.27
282.749
273.274
275.071
283.386
282.856
279.371
280.642
282.468
283.044
278.321
279.15
274.764
275.118
272.483
270.073
259.258
262.117
284.448
284.745
289.224
288.599
278.471
279.752
281.15
280.803
274.001
274.263
282.226
282.52
279.222
279.644
279.091
278.302
284.333
284.637
277.308
279.328
277.035
276.211
284.287
284.227
278.3
278.897
279.024
279.211
279.901
280.079
281.905
281.77
281.644
281.647
279.865
280.652
276.819
277.081
277.237
2.90632
4.40814
4.44754
4.72244
4.77036
5.11935
4.82643
5.17224
11.4097
6.28259
8.81767
14.8143
9.87546
18.5206
25.5066
27.7313
35.4182
35.4328
45.5331
50.1384
53.3777
56.3331
53.2878
39.6408
44.8247
28.5241
43.676
33.9529
59.9634
277.004
281.089
276.684
276.941
262.18
261.116
251.478
250.161
230.736
226.604
232.333
232.512
243.562
246.252
251.442
252.715
229.088
233.943
243.327
244.393
262.239
260.733
277.202
278.086
287.458
289.466
272.845
273.42
268.413
268.291
276.548
277.31
273.352
273.207
269.482
269.92
268.666
268.503
276.63
276.757
280.248
280.425
277.604
278.739
271.754
272.113
274.517
275.003
275.004
275.782
277.527
278.363
278.036
278.651
276.425
276.294
277.695
277.327
257.412
259.99
248.886
251.014
270.153
269.134
275.986
276.079