# vtk DataFile Version 3.0
vtk output
ASCII
DATASET POLYDATA
POINTS 24578 float
-151.53 81.83 75.23
-146.76 79.98 77.9
-147.26 82.51 76.57
-151.22 79.35 76.36
-146.3 77.32 78.47
-150.76 76.75 77.01
-146.01 74.82 79.56
-150.4 74.19 77.98
-145.43 72.07 79.86
-149.95 71.56 78.66
-145.02 69.6 80.58
-149.55 69.11 79.46
-144.64 67.21 81.53
-149.14 66.64 80.2
-144.27 64.77 82.34
-148.68 64.12 80.8
-144.06 62.18 83.1
-148.26 61.63 81.51
-143.83 59.57 83.96
-148.2 59.14 82.73
-143.54 56.98 84.63
-148.02 56.58 83.6
-143.3 54.28 84.95
-147.52 53.77 83.62
-142.71 51.53 84.98
-147.03 50.98 83.68
-142.34 49.05 85.71
-146.66 48.52 84.06
-142.24 46.57 86.6
-146.26 46.05 84.34
-145.97 43.63 84.94
-141.82 44.09 87.11
-141.56 41.44 87.04
-145.67 41.21 85.5
-140.98 38.76 87.5
-145.29 38.66 85.7
-140.75 36.16 87.85
-144.89 36.1 85.85
-144.62 33.53 86.3
-140.46 33.57 88.45
-140.13 30.94 88.56
-144.22 30.94 86.41
-143.81 28.2 86.49
-139.84 28.2 88.9
-143.44 25.45 86.68
-139.6 25.51 89.44
-143.18 22.67 87.12
-139.22 22.78 89.44
-142.9 19.88 87.51
-138.79 20.04 89.71
-142.6 17.15 87.83
-138.39 17.32 89.75
-137.91 14.61 89.73
-142.25 14.42 88.03
-141.99 11.68 88.46
-137.6 11.89 89.94
-141.61 8.95 88.57
-137.22 9.16 90.05
-141.13 6.27 88.48
-136.86 6.45 90.3
-140.68 3.58 88.47
-136.37 3.76 90.16
-140.25 0.89 88.51
-135.88 1.07 90.03
-139.71 -1.79 88.26
-135.64 -1.76 90.02
-135.64 -4.55 89.75
-140 -4.44 88.09
-135.69 -7.09 89
-140.34 -7.12 88.03
-135.79 -9.62 88.23
-140.37 -9.69 87.25
-135.84 -12.19 87.54
-140.43 -12.27 86.54
-135.99 -14.75 87
-140.5 -14.79 85.8
-136.21 -17.35 86.64
-140.62 -17.33 85.19
-136.42 -19.93 86.21
-140.85 -19.94 84.82
-136.49 -22.42 85.34
-140.79 -22.34 83.7
-136.45 -24.91 84.43
-140.78 -24.79 82.73
-136.55 -27.44 83.74
-140.84 -27.3 81.99
-136.57 -29.97 82.98
-140.97 -29.86 81.42
-136.73 -32.54 82.43
-141.02 -32.36 80.63
-136.76 -35.12 81.64
-141.09 -34.97 79.94
-141.32 -37.69 79.69
-136.83 -37.72 80.96
-141.45 -40.33 79.13
-136.9 -40.34 80.32
-137.11 -43 79.41
-141.48 -42.91 78.35
-141.57 -45.38 77.61
-137.04 -45.54 78.64
-141.59 -47.8 76.7
-137.03 -47.91 77.56
-141.86 -50.43 76.49
-137.15 -50.39 76.9
-141.9 -52.84 75.63
-137.27 -52.84 76.11
-141.91 -55.11 74.4
-137.53 -55.19 75.26
-137.48 -57.49 74.21
-141.9 -57.35 73.07
-142.03 -59.74 72.14
-137.7 -59.92 73.43
-142.25 -62.22 71.44
-137.97 -62.48 72.92
-142.57 -64.67 70.67
-138.15 -65.14 72.4
-142.87 -67.1 69.86
-138.34 -67.41 71.12
-143.16 -69.56 69.09
-138.58 -69.8 70.17
-143.42 -71.97 68.22
-138.72 -72 68.84
-143.42 -74.03 66.78
-138.71 -74.17 67.59
-143.52 -76.26 65.69
-138.9 -76.5 66.65
-143.64 -78.59 64.8
-139.03 -78.91 65.88
-143.64 -80.66 63.43
-139.36 -81.09 64.3
-142.41 80.53 78.87
-142.88 83.09 77.59
-141.83 77.87 79.86
-141.49 75.33 80.8
-140.97 72.61 81.19
-140.47 70.13 81.77
-140.01 67.69 82.47
-139.94 65.21 83.59
-139.84 62.72 84.64
-139.44 60.04 85.13
-139.12 57.42 85.86
-138.88 54.8 86.42
-138.56 52.14 86.78
-138.19 49.56 87.25
-137.83 46.99 87.76
-137.58 44.31 88.01
-137.31 41.63 88.23
-137.03 38.95 89.21
-136.57 36.22 89.77
-136.22 33.57 90.06
-135.88 30.91 90.36
-135.74 28.24 91.1
-135.47 25.56 91.56
-134.94 22.88 91.41
-134.47 20.19 91.43
-134.08 17.49 91.57
-133.61 14.8 91.52
-133.09 12.1 91.2
-132.71 9.37 91.23
-132.3 6.67 91.32
-131.94 3.96 91.53
-131.76 1.11 91.67
-131.5 -1.71 91.62
-131.31 -4.41 90.89
-131.1 -7.09 90.13
-131.35 -9.7 89.79
-131.55 -12.29 89.33
-131.63 -14.81 88.62
-131.74 -17.34 87.96
-131.85 -19.85 87.19
-132.06 -22.42 86.66
-132.19 -25.02 86.17
-132.25 -27.57 85.48
-132.26 -30.09 84.65
-132.44 -32.72 84.26
-132.56 -35.36 83.72
-132.63 -37.97 83.04
-132.75 -40.58 81.94
-132.83 -43.16 80.72
-132.77 -45.71 79.94
-132.75 -48.3 79.25
-132.77 -50.64 78.12
-132.8 -52.99 77
-132.95 -55.32 76.2
-133.13 -57.69 75.53
-133.33 -60.11 74.69
-133.5 -62.48 73.72
-133.64 -65.09 73
-133.72 -67.59 72.04
-133.86 -69.81 70.74
-134.01 -72.03 69.43
-134.18 -74.44 68.63
-134.35 -76.86 67.84
-134.77 -79.33 66.76
-135.07 -81.54 65.2
-138.04 81.11 79.93
-138.51 83.66 78.64
-137.48 78.45 80.95
-136.81 75.7 81.58
-136.53 73.2 82.68
-136.2 70.85 83.66
-136.01 68.35 84.53
-135.78 65.76 85.17
-135.49 63.19 85.82
-135.19 60.56 86.38
-134.98 57.99 87.45
-134.76 55.37 88.25
-134.53 52.77 88.88
-134 50.11 89.1
-133.65 47.3 89.03
-133.3 44.56 89.42
-133.29 41.92 90.17
-132.89 39.2 91
-132.5 36.43 91.58
-132.05 33.68 92.21
-131.7 30.98 92.36
-131.44 28.31 92.66
-131.04 25.67 93.02
-130.62 23.02 93.01
-130.15 20.36 93.11
-129.82 17.66 93.35
-129.27 14.97 93.05
-128.74 12.27 92.73
-128.4 9.55 92.87
-127.96 6.85 92.86
-127.84 4 93.22
-127.59 1.17 93.17
-127.27 -1.64 92.97
-127.25 -4.36 92.57
-127.15 -7.08 92.07
-127.17 -9.83 91.83
-127.29 -12.38 91.16
-127.29 -14.86 90.23
-127.44 -17.42 89.6
-127.57 -19.97 88.96
-127.76 -22.53 88.35
-127.82 -25.1 87.72
-127.85 -27.64 86.95
-127.95 -30.27 86.46
-128.2 -32.95 86.24
-128.25 -35.54 85.49
-128.5 -38.26 84.8
-128.59 -40.83 83.55
-128.62 -43.36 82.3
-128.5 -45.86 81.36
-128.57 -48.51 80.64
-128.51 -50.96 79.6
-128.63 -53.39 78.68
-128.82 -55.89 78.24
-129.15 -58.39 77.85
-129.06 -60.46 76.29
-128.99 -62.4 74.44
-128.98 -64.79 73.19
-129.01 -67.15 71.96
-128.97 -69.58 70.84
-129.28 -72.05 69.98
-129.48 -74.55 69.36
-130.01 -77.21 68.65
-130.42 -79.71 67.63
-130.79 -82.03 66.21
-133.82 81.84 81.46
-134.36 84.47 80.38
-133.19 79.09 82.22
-132.49 76.28 82.7
-131.95 73.65 83.71
-131.93 71.29 85
-131.87 68.9 86.17
-131.5 66.27 86.57
-131.13 63.64 86.94
-130.87 61.02 87.58
-130.68 58.45 88.47
-130.46 55.86 89.34
-130.18 53.24 90.02
-129.88 50.44 90.31
-129.64 47.69 90.79
-129.42 44.94 91.36
-129.23 42.2 92.03
-128.71 39.37 92.41
-128.45 36.65 93.48
-128.03 33.86 94.03
-127.47 31.03 94.24
-127.19 28.41 94.71
-126.88 25.78 95.12
-126.32 23.16 94.88
-125.8 20.53 94.74
-125.36 17.84 94.64
-124.86 15.16 94.43
-124.49 12.44 94.52
-124.2 9.71 94.8
-123.95 6.88 94.78
-123.68 4.05 94.73
-123.4 1.23 94.62
-123.18 -1.6 94.69
-123.37 -4.41 94.84
-123.31 -7.12 94.32
-123.16 -9.79 93.63
-122.95 -12.42 92.76
-123.09 -14.99 92.12
-123.27 -17.57 91.56
-123.4 -20.13 90.9
-123.5 -22.66 90.14
-123.53 -25.22 89.42
-123.57 -27.78 88.7
-123.68 -30.42 88.22
-123.74 -33.02 87.62
-123.94 -35.69 86.77
-124.14 -38.36 85.91
-124.27 -40.96 84.88
-124.51 -43.67 84.17
-124.44 -46.18 83.04
-124.36 -48.68 81.9
-124.32 -51.14 80.87
-124.34 -53.66 80.01
-124.65 -56.22 79.72
-124.85 -58.64 79.12
-124.76 -60.62 77.46
-124.57 -62.46 75.52
-124.49 -64.69 73.94
-124.51 -67.1 72.74
-124.57 -69.65 71.8
-124.65 -72.26 70.99
-125.14 -74.86 70.13
-125.57 -77.36 69.04
-126.01 -79.84 67.96
-126.39 -82.16 66.58
-129.58 82.52 82.46
-130.23 85.32 82
-128.9 79.77 83.09
-128.4 77.11 83.84
-127.98 74.41 84.96
-127.56 71.77 85.9
-127.33 69.24 86.57
-127.15 66.76 87.43
-126.86 64.14 88.01
-126.52 61.49 88.81
-126.36 58.96 89.84
-126.14 56.38 90.8
-125.97 53.53 91.15
-125.51 50.64 91.5
-125.42 47.93 92.31
-125.22 45.19 93.14
-125.05 42.45 93.81
-124.64 39.66 94.38
-124.31 36.88 95.2
-123.77 34.05 95.42
-123.26 31.23 95.69
-122.78 28.52 96.11
-122.44 25.87 96.38
-121.98 23.27 96.26
-121.42 20.65 96.06
-121.04 17.96 96.08
-120.68 15.29 96.36
-120.38 12.57 96.56
-120.17 9.75 96.72
-119.91 6.93 96.66
-119.55 4.12 96.37
-119.27 1.3 96.28
-119.07 -1.54 96.32
-119.25 -4.36 96.51
-119.22 -7.1 96.08
-119.04 -9.77 95.31
-119 -12.5 94.8
-118.91 -15.21 94.19
-119.08 -17.79 93.59
-119.2 -20.38 92.98
-119.3 -22.91 92.18
-119.31 -25.47 91.43
-119.31 -28 90.63
-119.33 -30.55 89.87
-119.45 -33.15 88.84
-119.6 -35.8 87.91
-119.83 -38.5 87.17
-120.05 -41.2 86.43
-120.26 -43.87 85.57
-120.32 -46.42 84.63
-120.24 -48.94 83.59
-120.24 -51.46 82.7
-120.29 -53.99 81.83
-120.1 -56.26 80.6
-120.22 -58.48 79.45
-120.33 -60.66 78.2
-120.24 -62.81 76.84
-120.26 -65.2 75.6
-120.18 -67.48 74.2
-120.23 -70.02 73.25
-120.52 -72.67 72.16
-120.81 -75.19 70.96
-121.18 -77.58 69.65
-121.52 -79.9 68.24
-121.92 -82.27 66.97
-125.25 83.17 83.41
-125.88 85.88 82.84
-124.6 80.45 83.94
-124.22 77.72 84.75
-123.94 75.09 85.93
-123.46 72.43 86.81
-122.93 69.71 87.46
-122.73 67.14 88.15
-122.59 64.64 89.06
-122.25 62 89.9
-121.95 59.4 90.9
-121.96 56.7 91.92
-121.73 53.8 92.2
-121.47 50.99 93.04
-121.27 48.22 94.07
-121.07 45.45 94.8
-120.88 42.69 95.58
-120.53 39.9 96.26
-120.06 37.06 96.59
-119.52 34.23 96.77
-119.19 31.45 97.53
-118.64 28.71 97.7
-118.07 25.97 97.81
-117.65 23.36 97.86
-117.2 20.75 97.82
-116.76 18.09 97.81
-116.45 15.42 98.16
-116.25 12.62 98.27
-115.94 9.82 98.09
-115.72 7.01 98.16
-115.43 4.19 98.08
-115.24 1.34 98.13
-115.02 -1.5 98.11
-115.03 -4.27 97.86
-115.05 -7.04 97.62
-115.01 -9.78 97.12
-114.91 -12.5 96.46
-114.83 -15.21 95.87
-114.79 -17.94 95.36
-114.95 -20.55 94.79
-115.09 -23.14 94.17
-115.09 -25.69 93.41
-115.09 -28.25 92.66
-115.19 -30.82 91.55
-115.34 -33.43 90.58
-115.56 -36.16 89.86
-115.65 -38.76 88.81
-115.73 -41.32 87.6
-115.89 -43.96 86.62
-115.94 -46.5 85.75
-115.97 -49.02 84.82
-116.06 -51.62 84.1
-116.16 -54.22 83.41
-116 -56.46 81.98
-115.78 -58.59 80.34
-115.73 -60.7 78.9
-115.82 -63.01 77.89
-115.91 -65.56 77.02
-115.85 -67.86 75.66
-116.07 -70.39 74.35
-116.45 -73.24 73.66
-116.73 -75.78 72.45
-116.87 -78.01 70.66
-117.13 -80.1 68.85
-117.46 -82.37 67.36
-120.93 83.58 83.84
-121.35 86.18 83.25
-120.43 80.92 84.76
-120.24 78.29 85.68
-119.85 75.73 86.84
-119.39 73.08 87.68
-118.97 70.39 88.56
-118.52 67.71 89.38
-118.27 65.1 89.93
-117.89 62.43 90.71
-117.77 59.68 91.68
-117.62 56.89 92.64
-117.53 54.11 93.38
-117.25 51.28 94.27
-116.99 48.44 95.07
-116.61 45.56 95.63
-116.37 42.76 96.18
-116.01 39.98 96.85
-115.62 37.17 97.41
-115.23 34.39 98.02
-114.97 31.62 98.96
-114.53 28.91 99.33
-113.9 26.15 99.26
-113.4 23.47 99.53
-113.04 20.85 99.72
-112.61 18.2 99.71
-112.34 15.45 99.77
-112.11 12.66 99.75
-111.7 9.9 99.43
-111.54 7.08 99.65
-111.31 4.26 99.65
-111.1 1.42 99.6
-110.91 -1.42 99.76
-110.84 -4.17 99.3
-110.76 -6.92 98.71
-110.8 -9.71 98.47
-110.76 -12.46 97.96
-110.67 -15.19 97.39
-110.65 -17.93 96.92
-110.56 -20.62 96.27
-110.66 -23.19 95.59
[...]
CELL_DATA 49152
SCALARS Temperature float 1
LOOKUP_TABLE default
333.054
331.09
301.856
304.631
328.087
324.375
284.368
299.739
304.524
307.231
315.844
308.555
313.159
305.13
316.945
314.32
323.004
331.376
303.375
309.517
273.725
257.349
256.169
258.989
309.616
297.393
328.027
307.12
325.752
314.928
287.283
308.288
294.518
288.401
300.683
292.244
311.311
319.793
295.253
294.12
292.718
315.078
306.749
330.972
326.79
294.707
315.809
302.582
308.399
282.125
275.73
285.988
301.11
280.202
271.173
271.177
250.805
292.758
273.008
255.702
272.599
248.543
233.47
280.951
270.172
275.998
202.784
245.324
75.7761
72.5487
73.513
70.5571
69.8046
64.1457
224.168
205.056
236.604
239.873
57.4169
71.275
61.9368
123.682
219.304
215.009
210.279
224.711
228.997
212.014
214.442
221.789
271.494
156.126
196.114
149.055
43.4994
42.5454
39.3352
39.894
38.3108
43.9495
42.86
48.3134
47.6486
45.8481
41.4065
35.5396
28.5914
17.2123
15.7253
17.4726
18.7461
20.8261
15.1764
20.3428
12.7367
11.0687
6.51841
9.96006
11.6225
9.13376
3.46422
5.73432
8.64911
9.18631
10.0012
10.8359
0.010451
0.0115584
324.932
325.922
309.136
298.107
319.421
323.475
280.886
276.58
298.529
304.411
303.3
312.09
321.537
311.981
325.414
317.82
300.293
312.209
304.27
302.99
297.453
289.247
290.358
273.592
307.302
315.679
303.768
317.095
274.225
283.763
262.381
249.479
284.842
328.12
302.563
309.136
315.32
289.969
279.227
295.876
298.879
328.796
319.19
313.475
272.069
280.873
295.663
270.831
281.717
277.765
268.849
270.062
242.2
271.604
254.53
258.456
270.658
248.301
216.994
275.099
240.685
286.898
275.871
270.664
195.174
229.392
84.1054
77.3785
221.442
183.925
240.447
225.992
223.347
48.2146
215.142
234.873
106.107
182.738
146.525
63.3318
214.044
169.454
223.162
223.794
195.163
200.997
256.856
250.327
250.832
238.817
251.908
251.813
208.307
228.967
36.5089
28.5087
27.4408
30.5596
16.1983
16.8415
18.2361
45.6856
34.8745
45.6537
36.2438
16.6953
18.1424
14.6394
18.4623
14.1718
18.7716
11.565
18.6792
16.3413
6.80652
6.96932
10.7524
8.2147
8.82322
7.22105
7.41706
8.20543
8.7489
9.70198
10.3052
9.23192
0.00959509
0.0089207
326.128
325.698
312.663
311.729
291.262
304.404
313.064
288.869
326.102
311.919
330.715
323.882
325.386
336.96
313.3
324.208
295.794
292.306
324.67
316.014
320.818
314.87
318.393
309.745
296.304
307.628
275.35
295.82
287.43
283.858
315.455
300.742
332.014
320.23
307.332
310.383
297.493
316.648
304.988
293.241
324.673
290.494
299.127
287.27
258.823
249.622
272.919
269.489
280.532
291.974
242.767
257.892
227.237
227.655
267.569
280.855
275.45
263.063
281.676
301.77
288.717
266.499
266.176
243.008
229.965
206.715
241.721
226.833
282.144
282.183
250.786
260.189
180.839
203.911
222.353
219.282
223.864
215.312
241.286
245.056
226.616
235.357
180.906
189.882
228.098
204.979
264.396
286.766
236.689
246.968
239.031
235.595
44.1539
126.48
49.3679
50.1391
24.9737
42.1985
187.783
193.556
52.0205
49.1378
46.9278
36.4541
13.4141
22.3452
16.793
23.4816
14.4319
8.85085
4.49197
2.4952
3.80647
1.65922
2.74901
1.78298
2.25416
1.77199
2.65988
2.30962
7.73097
2.52962
8.82579
10.7775
9.6351
9.53339
0.00590793
0.00473983
329.802
335.229
309.524
317.53
286.485
292.286
314.849
319.482
331.432
323.616
333.498
326.382
299.362
308.145
289.856
300.019
299.331
296.662
315.684
319.251
309.893
307.988
300.903
299.997
275.318
270.172
293.129
275.15
313.777
308.549
331.052
319.704
322.21
286.927
300.563
333.294
313.476
308.89
290.109
287.334
299.845
311.651
303.414
310.004
261.597
275.156
261.285
273.586
258.376
274.981
225.836
217.658
266.224
243.186
286.214
299.738
278.161
286.274
308.748
266.578
267.113
258.465
249.36
284.855
298.885
283.869
274.582
274.602
257.754
275.65
190.208
213.261
219.746
194.198
255.405
252.197
248.443
249.144
234.673
243.241
222.209
227.846
214.06
210.486
251.493
251.047
277.633
197.415
141.702
146.824
123.43
154.655
34.6807
31.2595
22.7757
49.3925
50.4301
45.0541
60.6353
169.763
65.2563
66.9691
69.0649
77.2736
54.3001
262.401
253.981
195.478
3.59843
3.37405
3.22183
2.97669
1.79409
1.5643
1.6247
1.5317
1.57643
1.43306
1.83287
1.84355
1.98412
1.85447
7.65985
6.90044
7.83919
6.77565
5.75653
4.68272
296.552
316.801
289.544
294.342
296.77
285.245
323.105
320.502
319.56
330.579
297.126
311.283
292.41
273.844
288.008
279.815
305.842
302.432
322.891
319.568
321.788
319.837
292.615
301.598
276.845
276.401
309.326
300.639
305.485
322.719
316.588
317.104
296.588
313.16
334.557
318.967
305.724
273.792
277.966
275.274
298.42
287.396
290.589
275.861
236.38
225.954
231.361
236.396
257.83
250.884
237.655
298.367
287.028
298.935
303.297
296.814
285.797
281.572
262.431
272.208
267.496
269.786
282.245
280.113
295.652
298.647
249.658
245.301
206.094
212.254
242.096
219.751
255.44
257.403
262.057
263.505
257.132
255.354
240.046
241.719
238.979
240.717
229.386
234.566
228.522
244.004
133.143
184.878
55.4136
51.8198
56.5288
109.286
173.424
28.8425
197.599
31.105
18.6343
48.7616
47.0055
58.6495
190.239
67.4023
73.3602
217.648
281.088
4.78007
18.778
3.18311
2.58182
2.05357
1.46767
2.82137
2.10443
2.15075
1.91506
1.63074
1.56064
1.88349
1.94707
1.85717
1.97786
1.51088
1.64698
1.04454
1.44507
0.379729
0.479268
0.336753
281.074
276.123
281.864
285.265
300.255
298.186
321.403
318.933
307.947
310.042
291.984
296.168
297.221
302.675
305.336
294.462
307.432
306.399
316.742
318.726
317.533
316.056
276.257
278.766
304.99
291.928
321.339
329.522
322.875
316.5
314.832
320.689
307.783
316.405
322.236
282.676
271.197
272.727
277.271
319.796
301.83
277.707
289.702
264.76
263.515
254.215
261.925
251.739
276.457
270.455
292.193
299.636
291.169
286.735
264.076
276.738
258.767
275.629
262.627
253.437
271.858
289.359
288.527
282.165
273.681
286.269
249.294
240.668
232.368
213.803
234.145
241.865
230.669
229.504
243.296
241.957
245.211
242.758
242.623
233.509
233.168
234.016
233.459
230.644
196.131
213.929
191.41
186.732
240.296
232.025
212.155
228.025
42.3812
150.334
20.0497
23.8328
23.248
24.6302
25.9001
34.306
33.6491
18.0155
129.311
220.624
16.9723
3.6808
1.83136
0.908754
1.44258
1.92443
1.39408
1.22961
1.85467
2.27401
1.88935
1.87123
1.97856
1.65536
1.76658
2.14775
1.93218
1.88267
1.70366
1.29729
1.05646
0.296706
0.410037
0.246742
269.842
267.148
292.494
278.446
307.865
303.767
321.713
322.135
304.309
305.162
305.532
298.264
308.854
308.359
299.751
310.632
298.466
300.495
307.544
308.338
305.032
306.98
291.219
278.492
310.444
309.769
318.588
300.661
286.069
291.835
280.636
287.016
279.154
278.443
270.275
260.859
247.098
296.577
304.782
318.052
271.686
294.52
274.459
250.527
266.776
286.725
265.668
292.641
277.587
277.92
302.856
278.695
283.687
268.797
235.821
244.643
268.803
286.488
262.404
274.141
278.577
266.768
268.784
288.27
244.168
253.731
209.03
230.468
231.283
215.991
214.791
203.51
218.545
217.333
236.099
233.849
211.551
220.453
197.217
203.093
145.416
147.382
185.381
175.641
155.867
112.244
185.198
184.388
233.58
232.878
33.2457
21.8441
27.7454
22.4198
20.0202
20.3568
20.4317
20.7503
18.1194
19.2169
21.559
21.3296
22.524
21.6952
11.1986
2.16768
2.01093
2.04586
1.93858
2.00513
2.03341
1.88001
2.14584
1.43935
1.37541
1.4015
1.26957
0.91268
1.84599
1.65363
1.01602
1.57447
1.07198
0.866788
0.765091
0.68836
0.450564
0.305824
290.327
282.452
298.885
299.389
302.735
302.741
309.472
311.358
299.402
296.126
311.846
305.47
310.351
306.279
287.972
291.772
310.744
306.803
307.801
311.819
304.813
307.065
299.576
298.595
304.153
303.605
289.235
293.81
269.966
273.772
281.6
278.867
285.236
307.008
286.203
297.625
293.363
317.945
318.606
282.654
273.425
275.735
243.945
235.56
270.81
273.67
268.547
291.48
258.715
292.059
280.562
277.524
264.511
269.706
258.468
249.304
294.645
283.486
275.289
260.848
267.358
258.862
279.89
216.532
218.477
206.365
217.115
204.68
242.465
246.76
223.615
218.279
242.658
230.238
269.637
260.651
244.39
242.76
157.063
206.089
153.769
163.94
156.542
171.764
84.9231
29.112
29.4072
30.9992
32.0294
152.075
30.8774
28.6956
26.5655
24.9202
19.1405
19.09
16.5462
17.2065
13.0114
14.7012
15.1359
18.7319
18.4934
16.1321
14.9308
1.61202
1.65515
2.32708
2.03023
2.12904
2.10735
1.83609
1.81117
1.55152
1.46184
1.51443
1.27964
0.628133
0.992279
0.489659
1.25225
0.523377
0.421362
0.387415
0.318036
0.353581
0.548948
0.746859
325.689
316.066
317.863
317.505
308.178
315.094
321.339
321.221
300.183
307.466
285.8
302.128
286.327
289.756
310.391
288.267
321.381
318.178
302.304
306.435
300.754
304.723
301.354
301.998
307.281
306.168
300.209
295.512
308.67
297.25
314.504
312.405
323.975
318.379
310.809
312.564
322.561
318.324
300.01
288.764
289.749
312.293
272.707
304.691
299.599
245.912
296.783
260.79
275.881
281.589
262.335
286.407
257.702
262.851
259.843
269.093
283.147
276.019
263.435
300.131
279.087
258.42
260.655
228.085
249.642
252.086
236.602
237.634
242.773
244.147
234.306
234.227
249.223
247.668
251.801
255.073
241.513
226.122
207.484
177.217
212.043
218.343
48.1384
160.701
140.087
149.179
112.032
25.1699
24.7091
29.9138
28.6128
26.5638
23.7524
20.4123
18.2123
19.4949
15.7324
18.5266
14.3832
13.4939
14.2781
12.7565
3.16388
2.83148
1.75755
0.983552
0.98884
1.21985
3.32837
3.05583
3.20723
1.13432
0.995777
1.28277
1.17698
1.04785
0.849032
0.793926
0.334218
0.413872
0.312452
0.341572
0.311967
0.328867
0.47177
0.672594
0.717213
0.631386
309.515
315.217
295.671
294.249
293.882
287.422
299.205
304.901
306.781
294.58
306.3
296.851
316.302
314.232
328.788
332.327
322.108
314.83
294.262
340.378
317.144
347.23
332.218
318
333.366
289.421
313.702
317.291
319.094
317.65
310.26
311.626
315.446
315.546
308.815
314.051
317.946
292.268
282.083
304.323
306.84
328.329
298.285
286.828
240.991
246.187
274.374
275.224
290.796
300.211
292.361
268.648
258.241
251.744
259.186
271.576
273.999
277.165
287.754
297.774
253.368
240.322
229.334
229.674
250.496
250.619
233.446
237.13
231.411
236.937
248.082
241.483
255.764
255.547
222.763
237.544
52.2279
164.774
118.199
36.1467
187.735
128.016
32.5357
44.6479
32.9546
184.18
186.361
185.955
152.063
161.974
155.904
23.2228
18.7608
18.5649
18.1799
18.3424
16.6721
11.2587
10.4881
8.39913
11.648
8.77221
8.87949
8.2691
5.78768
4.6417
4.05285
3.54246
3.53921
2.76852
2.69333
1.79464
1.67485
1.56951
1.50016
1.36001
1.1944
1.17802
1.06466
0.855655
0.420828
0.69669
0.593415
1.17089
1.02231
0.763989
0.736734
0.333911
290.613
293.123
297.004
292.288
297.272
293.337
318.081
305.928
323.264
320.514
319.552
314.971
317.379
344.077
336.923
330.719
329.74
337.039
342.323
350.37
343.146
335.834
314.094
321.608
306.031
305.022
308.831
319.552
311.47
315.426
314.274
311.158
318.072
292.409
306.942
304.655
292.393
294.966
298.268
295.382
315.821
282.33
254.58
257.919
252.782
227.142
269.672
309.161
305.201
286.755
275.984
246.017
251.26
244.313
264.907
254.235
266.101
262.253
284.076
263.817
200.919
224.159
193.344
228.057
245.388
240.262
246.357
237.145
248.213
245.296
253.222
258.37
239.521
246.827
234.601
226.147
205.234
196.082
168.336
209.927
190.714
191.678
179.685
34.5479
176.202
30.3977
196.934
199.316
169.801
170.661
186.232
186.643
175.247
172.199
181.707
176.511
114.073
23.1432
10.6091
14.4808
9.27572
8.82485
8.24185
6.21925
4.97268
3.84265
3.56268
3.68927
3.62912
3.53637
3.22494
3.10675
1.48589
1.50959
1.43855
1.46459
1.36107
1.31103
1.14547
1.09493
1.12712
0.590302
0.851848
0.999343
0.689397
0.901894
0.763432
0.554797
301.253
339.887
322.165
321.827
314.857
317.535
332.861
335.879
313.818
320.866
316.8
315.629
327.859
350.163
324.066
334.459
332.52
349.018
349.186
340.933
333.736
298.948
303.701
311.921
291.094
345.496
314.147
356.192
340.578
321.473
308.431
326.465
310.045
295.655
317.434
285.808
298.103
296.039
298.661
290.75
295.92
262.609
262.195
269.3
260.137
287.068
291.527
283.149
268.921
212.407
228.284
218.581
220.518
246.267
246.298
246.237
256.42
252.828
265.734
242.596
206.131
256.742
221.869
259.03
264.284
260.24
243.428
247.954
248.275
243.595
221.428
231.808
191.415
205.207
227.592
223.858
168.944
163.366
43.3281
53.3601
200.947
208.543
194.887
197.247
145.071
25.9803
186.641
174.437
165.452
159.69
143.557
156.981
16.1525
9.88982
10.435
2.26065
8.20848
8.6838
6.41556
3.1665
4.02029
7.49361
6.87792
5.90105
4.51236
3.27733
2.85891
2.8124
2.91143
3.01236
2.70934
2.73942
1.23291
1.32164
1.25855
1.29991
1.2331
1.12023
1.02745
0.814839
0.691531
0.339302
0.552929
0.236458
0.166945
0.0652092
0.122733
0.51829
331.569
328.526
312.071
335.689
313.837
342.818
342.823
328.866
319.816
321.076
330.264
330.072
349.543
330.754
322.86
323.149
332.483
343.18
331.027
299.729
283.871
308.787
306.168
351.373
341.412
371.516
353.582
367.995
317.426
326.13
251.012
283.87
301.211
266.121
292.881
300.13
305.15
284.925
296.527
285.439
278.901
270.053
279.446
251.194
278.768
239.427
265.33
210.229
160.988
258.274
227.908
270.214
243.809
270.656
254.213
270.171
267.716
269.764
267.425
255.15
263.037
267.529
256.592
272.593
260.358
263.351
225.024
228.766
230.985
235.36
208.819
202.268
164.855
173.873
218.137
223.611
46.4678
48.5627
50.3315
46.6115
205.023
197.775
209.636
209.635
184.339
183.706
184.096
180.641
3.07126
3.70123
8.95188
4.77744
6.35575
0.536904
0.0071332
0.00900231
0.013047
8.29362
6.32325
8.38792
7.77047
1.38527
2.08393
4.57493
3.53062
2.25866
2.18523
2.25606
2.19045
2.96937
2.78023
2.37705
1.02239
1.095
1.06204
1.03417
0.985741
1.03486
0.931048
0.860149
0.722441
0.57956
0.156509
0.210844
0.100508
0.153743
0.100903
0.333826
320.595
338.499
327.131
347.367
334.897
336.624
324.238
330.012
318.276
339.264
335.259
345.125
348.032
337.837
336.561
332.942
350.567
264.301
291.098
307.521
297.912
336.584
339.996
338.427
351.269
360.064
343.144
337.573
252.718
258.335
120.27
122.757
97.6459
234.838
275.788
264.383
261.854
256.441
264.498
246.983
245.134
243.586
238.112
236.246
241.979
258.582
244.421
281.85
275.21
315.101
291.315
317.722
295.274
287.717
288.592
246.817
274.969
280.974
268.352
261.079
275.156
258.327
269.322
259.119
231.848
239.875
222.709
215.04
242.117
237.253
231.557
229.719
249.171
234.528
253.051
257.172
158.974
178.677
213.87
217.616
203.888
212.518
193.168
195.849
87.9936
125.12
145.393
139.144
26.4331
28.8515
26.7381
23.3076
22.2767
14.0445
16.9544
0.114234
0.0101934
0.0148099
0.418959
0.307385
0.832593
5.19403
4.05922
5.21934
4.24672
0.82573
0.665785
0.528532
0.583524
2.42726
2.50206
1.83789
0.734532
0.607153
0.677513
0.575581
0.565942
0.665221
0.605652
0.821104
0.764808
0.820921
0.61829
0.159771
0.0496836
0.0393422
0.0497913
0.0502102
330.648
345.78
338.748
324.534
319.703
313.136
306.603
323.248
315.852
352.564
335.093
351.587
337.47
337.87
333.649
305.989
303.139
299.801
328.208
332.224
341.995
285.891
325.714
282.395
332.242
305.885
285.693
300.835
121.972
79.4893
110.485
117.068
62.3828
99.2549
270.931
275.876
227.41
246.814
243.676
229.355
236.564
262.489
238.093
278.198
265.485
291.196
285.146
293.657
307.461
309.253
301.76
303.099
268.917
257.607
232.194
251.134
274.07
259.626
248.974
245.179
251.362
251.52
256.412
246.47
236.948
231.401
257.756
250.605
249.056
252.221
241.657
239.19
260.747
258.337
201.164
212.735
44.034
52.3364
211.18
209.675
201.518
203.903
187.315
196.446
133.678
134.667
156.602
166.104
38.3979
27.248
22.1782
20.6959
8.60528
17.7859
14.004
14.0259
1.35394e-17
1.39891e-17
0.0457926
0.0189017
0.0282507
6.3011
6.12473
1.27726
2.56109
0.544094
0.60643
0.507918
0.365069
0.527149
0.204395
1.54103
0.654042
0.426159
0.484101
0.599309
0.565042
0.57561
0.523673
0.618779
0.595766
0.857629
0.763273
0.346511
0.305552
0.0525964
0.336295
0.426377
334.393
311.344
304.042
318.406
302.165
314.819
311.217
323.019
332.36
327.137
321.597
329.174
306.971
304.171
265.056
268.885
283.24
277.396
304.936
272.59
261.216
261.323
285.384
270.844
270.249
283.865
201.914
234.575
128.99
119.974
120.216
107.255
84.5404
56.1713
59.9384
49.0951
195.137
183.771
232.947
272.19
269.429
294.224
281.636
289.787
288.816
285.676
287.118
280.678
300.763
266.646
281.157
259.13
207.693
251.354
207.225
228.719
236.493
220.607
211.554
250.726
236.001
236.903
233.726
233.428
246.331
238.254
259.184
256.856
235.778
234.847
231.341
232.443
233.382
238.443
232.817
210.955
186.205
182.89
126.92
182.762
159.693
159.556
121.706
128.352
148.633
136.513
229.402
216.339
199.954
191.78
5.0392
4.02559
3.64012
3.71708
2.69189
3.10865
0.482581
0.320972
0.00895135
0.0152785
0.0212718
0.0959037
0.0271773
0.0523205
0.0351262
2.80043
0.614139
0.603018
0.0833344
0.249348
0.0255793
0.0273737
0.0229501
0.615702
0.589674
0.61807
0.624577
0.408764
0.322333
0.0677825
0.0615761
0.0649978
0.0218765
0.309859
0.236408
0.0445785
0.030517
0.0576743
318.675
291.443
308.721
318.231
302.694
301.044
272.77
282.232
270.543
276.132
273.855
287.046
234.168
298.663
277.428
255.379
294.313
290.085
288.18
285.893
271.355
273.125
265.754
274.659
237.765
252.139
216.248
234.29
208.508
196.782
223.903
87.3124
82.8249
86.0805
94.9152
89.3486
256.529
216.5
264.803
296.313
290.318
294.094
283.948
277.445
278.394
277.604
275.165
280.704
277.625
280.674
280.211
271.88
260.204
225.904
218.471
220.236
216.961
247.483
245.488
257.517
235.443
257.63
240.687
242.904
238.158
244.427
210.631
223.932
202.724
191.389
191.389
186.979
195.705
195.152
215.433
214.452
0
27.3744
40.4525
39.4701
23.7945
24.3747
20.2059
37.6872
139.482
137.641
222.103
220.607
1.39446e-08
4.9872e-09
1.0415
1.06261
0.28611
0.298295
0.0332584
0.0503713
0.0355189
0.0134473
0.0579408
0.00702825
0.00854575
0.0069875
0.0024592
0.00269948
0.00366461
0.346665
0.0806224
0.0269173
0.0347341
0.0340394
0.0363027
0.0298552
0.0344205
0.0191147
0.405243
0.377719
0.425944
0.528078
0.438969
0.117692
0.0408228
0.0626058
0.0534317
0.240009
0.230132
0.226668
0.00580255
0.0111607
299.295
301.718
321.786
281.871
287.638
306.506
269.462
268.771
294.218
293.068
315.368
314.348
307.501
316.509
293.626
313.008
289.507
342.234
303.663
338.208
263.09
282.432
230.987
253.299
239.186
240.231
265.925
259.218
287.37
282.248
282.742
295.494
278.248
285.343
280.197
294.564
297.786
305.072
298.112
288.912
291.436
286.381
274.734
296.865
283.445
288.878
286.689
269.481
279.643
249.143
263.049
256.97
222.997
254.056
229.809
260.828
255.978
265.13
264.576
256.29
255.19
254.886
239.113
240.752
231.374
232.466
205.457
210.233
188.615
205.262
169.096
169.002
188.974
181.492
34.2092
139.069
38.6437
22.5951
18.0699
39.286
21.6663
24.7179
33.2436
20.8959
42.163
39.1256
191.219
191.759
3.26447e-06
0.000592268
0.0273593
0.110077
0.157429
0.196454
1.00139e-18
8.57669e-19
1.01089e-18
0.0171668
0.00716065
0.000864663
0.0042981
0.00574589
0.00399357
0.00258948
0.00302018
0.0033116
0.0031191
0.166575
0.309492
0.0448239
0.0299474
0.0351821
0.0314729
0.0334794
0.261707
0.318581
0.361437
0.383962
0.382836
0.346473
0.0356004
0.0358643
0.0348111
0.0454856
0.196707
0.0218447
0.0207915
0.0123699
290.987
290.303
289.549
292.258
307.117
306.99
270.86
311.795
307.906
315.638
329.55
312.203
321.122
315.546
307.726
283.602
308.394
294.638
256.314
263.725
122.086
119.272
107.352
150.378
266.346
254.348
278.137
303.211
299.514
306.255
298.143
298.194
285.828
295.879
293.729
287.08
299.647
280.293
278.346
289.544
281.8
297.05
290.734
296.938
282.729
302.937
278.292
238.716
257.459
208.92
253.895
257.899
242.421
283.25
256.954
288.682
270.441
253.695
259.14
240.24
251.391
240.361
231.105
236.92
224.551
223.623
213.338
207.938
211.248
208.06
218.363
218.857
209.318
216.714
174.979
162.716
181.974
185.524
106.284
6.35553
21.4768
12.4615
25.4521
24.4924
23.4162
25.5899
6.79742
8.45716
2.00194
3.74267e-05
0.0127005
0.0271627
0.0888422
0.0842926
1.02698e-18
1.37848e-18
1.35479e-18
1.45084e-18
7.01637e-19
0
1.2031e-30
1.55756e-31
1.04584e-18
8.8376e-19
1.30588e-18
0.00193289
2.58175e-05
0.000197047
0.00310848
0.00310575
0.000585097
0.0050389
0.00251643
0.020888
0
0
0
0
0.00419821
0.205459
0.0152026
0.140013
0.1381
0.0169125
0.0248313
0.0131287
0.0209823
0.021499
293.894
292.164
288.58
320.626
324.724
295.069
302.974
319.011
310.334
310.11
314.963
304.558
316.701
295.574
285.35
279.6
260.776
274.448
234.182
230.108
236.747
195.362
222.874
307.721
278.752
313.423
303.309
318.789
310.272
329.377
310.93
304.762
303.071
281.182
289.634
276.166