# vtk DataFile Version 3.0
vtk output
ASCII
DATASET POLYDATA
POINTS 24578 float
-151.53 81.83 75.23
-146.76 79.98 77.9
-147.26 82.51 76.57
-151.22 79.35 76.36
-146.3 77.32 78.47
-150.76 76.75 77.01
-146.01 74.82 79.56
-150.4 74.19 77.98
-145.43 72.07 79.86
-149.95 71.56 78.66
-145.02 69.6 80.58
-149.55 69.11 79.46
-144.64 67.21 81.53
-149.14 66.64 80.2
-144.27 64.77 82.34
-148.68 64.12 80.8
-144.06 62.18 83.1
-148.26 61.63 81.51
-143.83 59.57 83.96
-148.2 59.14 82.73
-143.54 56.98 84.63
-148.02 56.58 83.6
-143.3 54.28 84.95
-147.52 53.77 83.62
-142.71 51.53 84.98
-147.03 50.98 83.68
-142.34 49.05 85.71
-146.66 48.52 84.06
-142.24 46.57 86.6
-146.26 46.05 84.34
-145.97 43.63 84.94
-141.82 44.09 87.11
-141.56 41.44 87.04
-145.67 41.21 85.5
-140.98 38.76 87.5
-145.29 38.66 85.7
-140.75 36.16 87.85
-144.89 36.1 85.85
-144.62 33.53 86.3
-140.46 33.57 88.45
-140.13 30.94 88.56
-144.22 30.94 86.41
-143.81 28.2 86.49
-139.84 28.2 88.9
-143.44 25.45 86.68
-139.6 25.51 89.44
-143.18 22.67 87.12
-139.22 22.78 89.44
-142.9 19.88 87.51
-138.79 20.04 89.71
-142.6 17.15 87.83
-138.39 17.32 89.75
-137.91 14.61 89.73
-142.25 14.42 88.03
-141.99 11.68 88.46
-137.6 11.89 89.94
-141.61 8.95 88.57
-137.22 9.16 90.05
-141.13 6.27 88.48
-136.86 6.45 90.3
-140.68 3.58 88.47
-136.37 3.76 90.16
-140.25 0.89 88.51
-135.88 1.07 90.03
-139.71 -1.79 88.26
-135.64 -1.76 90.02
-135.64 -4.55 89.75
-140 -4.44 88.09
-135.69 -7.09 89
-140.34 -7.12 88.03
-135.79 -9.62 88.23
-140.37 -9.69 87.25
-135.84 -12.19 87.54
-140.43 -12.27 86.54
-135.99 -14.75 87
-140.5 -14.79 85.8
-136.21 -17.35 86.64
-140.62 -17.33 85.19
-136.42 -19.93 86.21
-140.85 -19.94 84.82
-136.49 -22.42 85.34
-140.79 -22.34 83.7
-136.45 -24.91 84.43
-140.78 -24.79 82.73
-136.55 -27.44 83.74
-140.84 -27.3 81.99
-136.57 -29.97 82.98
-140.97 -29.86 81.42
-136.73 -32.54 82.43
-141.02 -32.36 80.63
-136.76 -35.12 81.64
-141.09 -34.97 79.94
-141.32 -37.69 79.69
-136.83 -37.72 80.96
-141.45 -40.33 79.13
-136.9 -40.34 80.32
-137.11 -43 79.41
-141.48 -42.91 78.35
-141.57 -45.38 77.61
-137.04 -45.54 78.64
-141.59 -47.8 76.7
-137.03 -47.91 77.56
-141.86 -50.43 76.49
-137.15 -50.39 76.9
-141.9 -52.84 75.63
-137.27 -52.84 76.11
-141.91 -55.11 74.4
-137.53 -55.19 75.26
-137.48 -57.49 74.21
-141.9 -57.35 73.07
-142.03 -59.74 72.14
-137.7 -59.92 73.43
-142.25 -62.22 71.44
-137.97 -62.48 72.92
-142.57 -64.67 70.67
-138.15 -65.14 72.4
-142.87 -67.1 69.86
-138.34 -67.41 71.12
-143.16 -69.56 69.09
-138.58 -69.8 70.17
-143.42 -71.97 68.22
-138.72 -72 68.84
-143.42 -74.03 66.78
-138.71 -74.17 67.59
-143.52 -76.26 65.69
-138.9 -76.5 66.65
-143.64 -78.59 64.8
-139.03 -78.91 65.88
-143.64 -80.66 63.43
-139.36 -81.09 64.3
-142.41 80.53 78.87
-142.88 83.09 77.59
-141.83 77.87 79.86
-141.49 75.33 80.8
-140.97 72.61 81.19
-140.47 70.13 81.77
-140.01 67.69 82.47
-139.94 65.21 83.59
-139.84 62.72 84.64
-139.44 60.04 85.13
-139.12 57.42 85.86
-138.88 54.8 86.42
-138.56 52.14 86.78
-138.19 49.56 87.25
-137.83 46.99 87.76
-137.58 44.31 88.01
-137.31 41.63 88.23
-137.03 38.95 89.21
-136.57 36.22 89.77
-136.22 33.57 90.06
-135.88 30.91 90.36
-135.74 28.24 91.1
-135.47 25.56 91.56
-134.94 22.88 91.41
-134.47 20.19 91.43
-134.08 17.49 91.57
-133.61 14.8 91.52
-133.09 12.1 91.2
-132.71 9.37 91.23
-132.3 6.67 91.32
-131.94 3.96 91.53
-131.76 1.11 91.67
-131.5 -1.71 91.62
-131.31 -4.41 90.89
-131.1 -7.09 90.13
-131.35 -9.7 89.79
-131.55 -12.29 89.33
-131.63 -14.81 88.62
-131.74 -17.34 87.96
-131.85 -19.85 87.19
-132.06 -22.42 86.66
-132.19 -25.02 86.17
-132.25 -27.57 85.48
-132.26 -30.09 84.65
-132.44 -32.72 84.26
-132.56 -35.36 83.72
-132.63 -37.97 83.04
-132.75 -40.58 81.94
-132.83 -43.16 80.72
-132.77 -45.71 79.94
-132.75 -48.3 79.25
-132.77 -50.64 78.12
-132.8 -52.99 77
-132.95 -55.32 76.2
-133.13 -57.69 75.53
-133.33 -60.11 74.69
-133.5 -62.48 73.72
-133.64 -65.09 73
-133.72 -67.59 72.04
-133.86 -69.81 70.74
-134.01 -72.03 69.43
-134.18 -74.44 68.63
-134.35 -76.86 67.84
-134.77 -79.33 66.76
-135.07 -81.54 65.2
-138.04 81.11 79.93
-138.51 83.66 78.64
-137.48 78.45 80.95
-136.81 75.7 81.58
-136.53 73.2 82.68
-136.2 70.85 83.66
-136.01 68.35 84.53
-135.78 65.76 85.17
-135.49 63.19 85.82
-135.19 60.56 86.38
-134.98 57.99 87.45
-134.76 55.37 88.25
-134.53 52.77 88.88
-134 50.11 89.1
-133.65 47.3 89.03
-133.3 44.56 89.42
-133.29 41.92 90.17
-132.89 39.2 91
-132.5 36.43 91.58
-132.05 33.68 92.21
-131.7 30.98 92.36
-131.44 28.31 92.66
-131.04 25.67 93.02
-130.62 23.02 93.01
-130.15 20.36 93.11
-129.82 17.66 93.35
-129.27 14.97 93.05
-128.74 12.27 92.73
-128.4 9.55 92.87
-127.96 6.85 92.86
-127.84 4 93.22
-127.59 1.17 93.17
-127.27 -1.64 92.97
-127.25 -4.36 92.57
-127.15 -7.08 92.07
-127.17 -9.83 91.83
-127.29 -12.38 91.16
-127.29 -14.86 90.23
-127.44 -17.42 89.6
-127.57 -19.97 88.96
-127.76 -22.53 88.35
-127.82 -25.1 87.72
-127.85 -27.64 86.95
-127.95 -30.27 86.46
-128.2 -32.95 86.24
-128.25 -35.54 85.49
-128.5 -38.26 84.8
-128.59 -40.83 83.55
-128.62 -43.36 82.3
-128.5 -45.86 81.36
-128.57 -48.51 80.64
-128.51 -50.96 79.6
-128.63 -53.39 78.68
-128.82 -55.89 78.24
-129.15 -58.39 77.85
-129.06 -60.46 76.29
-128.99 -62.4 74.44
-128.98 -64.79 73.19
-129.01 -67.15 71.96
-128.97 -69.58 70.84
-129.28 -72.05 69.98
-129.48 -74.55 69.36
-130.01 -77.21 68.65
-130.42 -79.71 67.63
-130.79 -82.03 66.21
-133.82 81.84 81.46
-134.36 84.47 80.38
-133.19 79.09 82.22
-132.49 76.28 82.7
-131.95 73.65 83.71
-131.93 71.29 85
-131.87 68.9 86.17
-131.5 66.27 86.57
-131.13 63.64 86.94
-130.87 61.02 87.58
-130.68 58.45 88.47
-130.46 55.86 89.34
-130.18 53.24 90.02
-129.88 50.44 90.31
-129.64 47.69 90.79
-129.42 44.94 91.36
-129.23 42.2 92.03
-128.71 39.37 92.41
-128.45 36.65 93.48
-128.03 33.86 94.03
-127.47 31.03 94.24
-127.19 28.41 94.71
-126.88 25.78 95.12
-126.32 23.16 94.88
-125.8 20.53 94.74
-125.36 17.84 94.64
-124.86 15.16 94.43
-124.49 12.44 94.52
-124.2 9.71 94.8
-123.95 6.88 94.78
-123.68 4.05 94.73
-123.4 1.23 94.62
-123.18 -1.6 94.69
-123.37 -4.41 94.84
-123.31 -7.12 94.32
-123.16 -9.79 93.63
-122.95 -12.42 92.76
-123.09 -14.99 92.12
-123.27 -17.57 91.56
-123.4 -20.13 90.9
-123.5 -22.66 90.14
-123.53 -25.22 89.42
-123.57 -27.78 88.7
-123.68 -30.42 88.22
-123.74 -33.02 87.62
-123.94 -35.69 86.77
-124.14 -38.36 85.91
-124.27 -40.96 84.88
-124.51 -43.67 84.17
-124.44 -46.18 83.04
-124.36 -48.68 81.9
-124.32 -51.14 80.87
-124.34 -53.66 80.01
-124.65 -56.22 79.72
-124.85 -58.64 79.12
-124.76 -60.62 77.46
-124.57 -62.46 75.52
-124.49 -64.69 73.94
-124.51 -67.1 72.74
-124.57 -69.65 71.8
-124.65 -72.26 70.99
-125.14 -74.86 70.13
-125.57 -77.36 69.04
-126.01 -79.84 67.96
-126.39 -82.16 66.58
-129.58 82.52 82.46
-130.23 85.32 82
-128.9 79.77 83.09
-128.4 77.11 83.84
-127.98 74.41 84.96
-127.56 71.77 85.9
-127.33 69.24 86.57
-127.15 66.76 87.43
-126.86 64.14 88.01
-126.52 61.49 88.81
-126.36 58.96 89.84
-126.14 56.38 90.8
-125.97 53.53 91.15
-125.51 50.64 91.5
-125.42 47.93 92.31
-125.22 45.19 93.14
-125.05 42.45 93.81
-124.64 39.66 94.38
-124.31 36.88 95.2
-123.77 34.05 95.42
-123.26 31.23 95.69
-122.78 28.52 96.11
-122.44 25.87 96.38
-121.98 23.27 96.26
-121.42 20.65 96.06
-121.04 17.96 96.08
-120.68 15.29 96.36
-120.38 12.57 96.56
-120.17 9.75 96.72
-119.91 6.93 96.66
-119.55 4.12 96.37
-119.27 1.3 96.28
-119.07 -1.54 96.32
-119.25 -4.36 96.51
-119.22 -7.1 96.08
-119.04 -9.77 95.31
-119 -12.5 94.8
-118.91 -15.21 94.19
-119.08 -17.79 93.59
-119.2 -20.38 92.98
-119.3 -22.91 92.18
-119.31 -25.47 91.43
-119.31 -28 90.63
-119.33 -30.55 89.87
-119.45 -33.15 88.84
-119.6 -35.8 87.91
-119.83 -38.5 87.17
-120.05 -41.2 86.43
-120.26 -43.87 85.57
-120.32 -46.42 84.63
-120.24 -48.94 83.59
-120.24 -51.46 82.7
-120.29 -53.99 81.83
-120.1 -56.26 80.6
-120.22 -58.48 79.45
-120.33 -60.66 78.2
-120.24 -62.81 76.84
-120.26 -65.2 75.6
-120.18 -67.48 74.2
-120.23 -70.02 73.25
-120.52 -72.67 72.16
-120.81 -75.19 70.96
-121.18 -77.58 69.65
-121.52 -79.9 68.24
-121.92 -82.27 66.97
-125.25 83.17 83.41
-125.88 85.88 82.84
-124.6 80.45 83.94
-124.22 77.72 84.75
-123.94 75.09 85.93
-123.46 72.43 86.81
-122.93 69.71 87.46
-122.73 67.14 88.15
-122.59 64.64 89.06
-122.25 62 89.9
-121.95 59.4 90.9
-121.96 56.7 91.92
-121.73 53.8 92.2
-121.47 50.99 93.04
-121.27 48.22 94.07
-121.07 45.45 94.8
-120.88 42.69 95.58
-120.53 39.9 96.26
-120.06 37.06 96.59
-119.52 34.23 96.77
-119.19 31.45 97.53
-118.64 28.71 97.7
-118.07 25.97 97.81
-117.65 23.36 97.86
-117.2 20.75 97.82
-116.76 18.09 97.81
-116.45 15.42 98.16
-116.25 12.62 98.27
-115.94 9.82 98.09
-115.72 7.01 98.16
-115.43 4.19 98.08
-115.24 1.34 98.13
-115.02 -1.5 98.11
-115.03 -4.27 97.86
-115.05 -7.04 97.62
-115.01 -9.78 97.12
-114.91 -12.5 96.46
-114.83 -15.21 95.87
-114.79 -17.94 95.36
-114.95 -20.55 94.79
-115.09 -23.14 94.17
-115.09 -25.69 93.41
-115.09 -28.25 92.66
-115.19 -30.82 91.55
-115.34 -33.43 90.58
-115.56 -36.16 89.86
-115.65 -38.76 88.81
-115.73 -41.32 87.6
-115.89 -43.96 86.62
-115.94 -46.5 85.75
-115.97 -49.02 84.82
-116.06 -51.62 84.1
-116.16 -54.22 83.41
-116 -56.46 81.98
-115.78 -58.59 80.34
-115.73 -60.7 78.9
-115.82 -63.01 77.89
-115.91 -65.56 77.02
-115.85 -67.86 75.66
-116.07 -70.39 74.35
-116.45 -73.24 73.66
-116.73 -75.78 72.45
-116.87 -78.01 70.66
-117.13 -80.1 68.85
-117.46 -82.37 67.36
-120.93 83.58 83.84
-121.35 86.18 83.25
-120.43 80.92 84.76
-120.24 78.29 85.68
-119.85 75.73 86.84
-119.39 73.08 87.68
-118.97 70.39 88.56
-118.52 67.71 89.38
-118.27 65.1 89.93
-117.89 62.43 90.71
-117.77 59.68 91.68
-117.62 56.89 92.64
-117.53 54.11 93.38
-117.25 51.28 94.27
-116.99 48.44 95.07
-116.61 45.56 95.63
-116.37 42.76 96.18
-116.01 39.98 96.85
-115.62 37.17 97.41
-115.23 34.39 98.02
-114.97 31.62 98.96
-114.53 28.91 99.33
-113.9 26.15 99.26
-113.4 23.47 99.53
-113.04 20.85 99.72
-112.61 18.2 99.71
-112.34 15.45 99.77
-112.11 12.66 99.75
-111.7 9.9 99.43
-111.54 7.08 99.65
-111.31 4.26 99.65
-111.1 1.42 99.6
-110.91 -1.42 99.76
-110.84 -4.17 99.3
-110.76 -6.92 98.71
-110.8 -9.71 98.47
-110.76 -12.46 97.96
-110.67 -15.19 97.39
-110.65 -17.93 96.92
-110.56 -20.62 96.27
-110.66 -23.19 95.59
[...]
CELL_DATA 49152
SCALARS Temperature float 1
LOOKUP_TABLE default
2.92629e-06
2.72229e-06
1.03658e-05
1.91792e-06
2.58569e-06
2.02669e-06
1.24108e-05
1.18135e-05
1.15378e-05
1.20595e-05
1.10713e-05
1.09748e-05
1.02715e-05
8.23091e-06
1.95364e-06
2.48287e-06
2.05812e-06
6.98975e-06
1.65873e-05
1.72125e-05
5.33093e-05
0.000183463
0.00012608
5.59812e-05
5.13458e-05
0.000184971
0.000179078
0.000339859
0.000348125
0.000333192
0.000350181
0.000204273
9.67827e-05
0.000512155
0.000237581
0.000860409
0.000486999
0.000611029
0.00661752
0.00456907
0.00496097
0.00719195
0.00530744
0.00824132
0.00910006
0.010151
0.00827276
0.0324153
0.0203563
0.0394209
0.00156948
0.00427129
0.0069107
0.00633855
0.00884845
0.009301
0.00880114
0.0320939
0.084075
0.463308
0.0714284
0.0807799
0.112356
0.102245
0.114054
0.0980574
1.46827
1.55562
2.51522
2.66192
2.59756
2.72292
2.68769
2.65538
2.53203
2.21452
2.15547
2.26651
9.92438
11.6953
10.3082
7.25087
6.76105
5.03334
5.38439
3.63089
6.28196
6.51846
6.87655
3.71901
4.11447
8.25751
20.4212
151.604
211.167
206.188
201.775
214.942
237.359
266.677
71.6979
244.293
267.795
255.018
295.578
237.562
266.61
277.721
76.0914
77.6457
76.7662
83.9622
66.6497
76.6731
60.3464
260.866
165.658
232.663
219.59
298.17
309.342
288.598
273.933
244.599
240.269
207.642
286.772
290.696
2.23419e-06
2.394e-06
1.17167e-05
1.23242e-05
2.17052e-06
2.92099e-06
7.6629e-06
2.67651e-06
1.68704e-06
1.66036e-06
1.29428e-06
1.77446e-06
1.78189e-06
1.15488e-05
7.15184e-06
4.82791e-06
1.41686e-05
1.27675e-05
1.72225e-05
1.93264e-05
2.95966e-05
3.65979e-05
4.49433e-05
0.000193239
0.000162195
9.28037e-05
8.99151e-05
7.31178e-05
4.81095e-05
6.57604e-05
4.67264e-05
7.53582e-05
2.88624e-05
8.61486e-05
0.000270368
0.000350478
0.00031754
0.000148343
0.000198658
0.000342113
0.000314705
0.000850072
0.00114335
0.00102477
0.0463563
0.0362335
0.010466
0.0259857
0.00585031
0.00602992
0.00779194
0.00539818
0.0104142
0.00972358
0.00763421
0.0137235
0.0136315
0.013963
0.0187117
0.00863039
0.0351903
0.00852439
0.0700026
0.0625572
0.996499
1.13456
1.23224
1.33382
1.20367
1.37515
0.938761
1.17343
1.32644
1.67216
2.02668
2.53063
2.84529
3.30121
3.45896
10.5031
3.27026
14.3436
12.1369
11.1587
15.5426
13.167
3.91086
10.2338
12.1921
25.8903
30.7575
31.6197
48.5765
34.1629
213.866
183.337
179.756
181.29
53.8578
56.9272
68.3003
54.0898
60.1431
44.5575
234.484
42.3562
264.089
117.021
164.905
194.876
78.625
258.155
168.378
235.15
294.094
245.641
245.028
297.778
300.06
297.343
296.82
215.967
237.544
195.374
193.62
242.451
290.379
287.607
1.80186e-06
1.89405e-06
1.08906e-05
1.10026e-05
1.47939e-05
1.41415e-05
1.25229e-05
2.61314e-06
1.29701e-06
2.0517e-06
1.9992e-06
1.97589e-06
2.07879e-06
1.89253e-06
2.54279e-06
9.50223e-06
1.51049e-05
1.46081e-05
9.18117e-06
5.82325e-06
4.60979e-05
0.000132533
0.000159338
0.000218671
0.000211438
0.000179923
0.000145834
4.41928e-05
3.41242e-05
3.40931e-05
3.56483e-05
2.81013e-05
3.2297e-05
0.00022134
0.000242099
0.000273249
0.000205292
0.000735988
0.000914842
0.000884197
0.000468893
0.000546506
0.000505892
0.000967705
0.00429997
0.03041
0.00415217
0.00353188
0.00407457
0.00457025
0.0144427
0.0118083
0.00892886
0.00728151
0.00637063
0.00581498
0.00584192
0.00597297
0.00669369
0.00676071
0.00609033
0.0148724
0.308857
0.820403
1.22694
1.15952
1.22097
0.603162
1.02685
0.933388
1.29654
0.56719
7.6819
2.08728
2.36361
2.109
2.31741
1.80974
2.05825
2.28326
2.40136
2.94447
7.46612
3.09253
3.45763
7.56773
3.22508
3.49072
23.9484
10.2547
18.1474
25.8478
202.723
188.464
224.512
220.502
102.016
211.088
52.4358
52.1624
224.097
55.2862
50.9221
61.8396
61.7461
70.6448
76.2629
84.7585
230.504
84.296
299.406
265.702
229.291
306.32
285.756
314.31
321.208
299.496
314.732
258.095
254.818
214.236
241.034
188.148
250.073
238.502
290.963
268.633
2.23288e-06
2.1407e-06
1.03173e-05
7.34958e-06
1.54505e-05
1.51177e-05
1.12222e-05
6.68523e-06
5.22191e-06
3.15415e-06
4.29505e-06
2.09651e-06
1.13373e-05
1.16319e-05
1.51708e-05
1.5466e-05
1.60546e-05
1.55912e-05
1.37297e-05
1.43964e-05
1.59971e-05
1.53568e-05
1.6774e-05
1.68987e-05
3.5001e-05
4.09779e-05
2.33815e-05
8.33863e-05
8.69297e-05
7.44592e-05
3.38479e-05
7.57216e-05
0.000183496
6.48607e-05
6.19665e-05
0.00024126
0.000428222
0.000352271
0.000780803
0.000631078
0.000174751
0.000240998
0.000484913
0.00481735
0.014099
0.00436366
0.00983456
0.00298048
0.0071218
0.00481067
0.0106516
0.0109039
0.00910247
0.00695443
0.00507731
0.00454124
0.00323096
0.00310355
0.00629718
0.0168459
0.0167371
0.0226161
0.0608997
0.122145
0.122607
0.492705
8.5917
1.12018
1.70167
0.893887
12.2857
5.61724
2.99365
13.1007
5.3092
9.95949
11.5501
11.1056
13.9212
8.5059
13.4167
10.5574
5.8947
6.52901
3.2313
3.09522
7.09195
14.6758
168.108
163.043
176.252
143.784
233.896
245.119
58.8846
198.116
185.856
164.472
205.969
134.271
36.0583
36.648
36.3111
38.3258
50.0247
57.0339
60.7484
45.2306
300.402
296.879
321.714
318.968
298.319
287.347
286.135
280.616
274.924
240.962
227.356
217.465
179.068
223.857
195.458
277.152
272.27
279.884
303.686
300.426
1.63366e-05
1.03416e-05
1.84117e-05
1.70167e-05
1.6538e-05
1.61831e-05
4.56116e-06
5.79478e-06
7.71584e-06
5.30723e-06
1.67811e-05
1.60618e-05
1.87851e-05
1.88181e-05
1.84764e-05
1.81354e-05
1.63644e-05
1.58976e-05
1.26404e-05
1.11526e-05
1.07756e-05
9.14681e-06
1.82252e-05
1.72504e-05
2.11266e-05
2.14266e-05
1.84738e-05
1.75594e-05
5.73725e-05
8.86484e-05
7.94317e-05
0.000113764
9.52846e-05
0.00016915
0.000233869
0.000178925
0.000142138
2.54988e-05
2.90489e-05
2.84011e-05
2.4953e-05
3.82318e-05
0.000125063
0.00211266
0.0094541
0.0130129
0.00994705
0.00986443
0.00604378
0.00770598
0.00955089
0.00304333
0.00752769
0.0489212
0.0456875
0.0457343
0.0583177
0.0669893
0.0790888
0.0192957
0.0513946
0.0681659
0.0791019
0.0731401
0.0766888
0.0769843
0.199475
0.685181
11.9707
10.0285
2.20126
14.5354
12.4298
10.9393
11.1179
9.12977
12.6034
13.1594
17.1244
15.7008
17.1446
15.709
14.3697
2.27389
2.17915
4.23355
20.6604
15.8825
26.787
195.957
161.131
179.863
119.349
183.939
38.0591
45.2326
195.331
215.791
201.1
209.808
115.282
48.5987
50.1736
49.6982
60.3055
284.501
194.318
299.083
305.912
317.753
298.742
314.872
251.22
267.048
251.161
238.666
190.082
193.968
140.68
215.076
154.576
260.396
249.058
284.136
264.533
306.496
304.915
293.221
2.24299e-05
2.19722e-05
2.15645e-05
2.02639e-05
1.82097e-05
1.72861e-05
9.80016e-06
1.03718e-05
1.46649e-05
1.43878e-05
1.78262e-05
1.75526e-05
1.80908e-05
1.78018e-05
1.81822e-05
1.81168e-05
1.72776e-05
1.70548e-05
1.61189e-05
1.6157e-05
1.70919e-05
1.63924e-05
2.07005e-05
2.06949e-05
1.97724e-05
1.50017e-05
1.05274e-05
6.47036e-06
8.44409e-05
7.43581e-05
7.7285e-05
0.000111413
0.000135323
0.000191832
0.000207765
3.25562e-05
0.000131875
0.000102832
1.49745e-05
2.67803e-05
0.00022815
0.000264264
0.000298057
0.00307511
0.00398329
0.00661495
0.00555839
0.00615197
0.00333516
0.00487412
0.00590388
0.00732583
0.00428823
0.00320112
0.00109759
0.0025251
0.00303928
0.00215214
0.00891838
0.0813189
0.0711911
0.138106
0.161667
0.160004
0.0636105
0.0266384
0.0683806
0
0.0139442
12.3079
4.71598
2.07895
3.63578
5.31291
1.28239
2.53014
4.15505
9.10838
9.68147
19.6184
21.2439
20.3268
22.7043
25.0274
31.9643
20.1174
27.3551
31.9971
29.5902
40.7601
40.8154
34.1683
212.182
154.089
218.443
208.755
223.153
227.377
228.567
237.04
213.036
53.0855
29.5461
50.0739
266.158
258.514
292.307
274.299
298.662
291.753
300.641
249.489
267.315
175.502
262.002
264.161
191.542
252.483
84.5991
110.906
196.122
197.463
273.724
260.501
301.237
292.968
282.761
307.521
2.57255e-05
2.52259e-05
2.26121e-05
2.32506e-05
1.42583e-05
1.51204e-05
9.27325e-06
8.89856e-06
1.60325e-05
1.59725e-05
1.65737e-05
1.73502e-05
1.62441e-05
1.6247e-05
1.84057e-05
1.77874e-05
2.0199e-05
2.00637e-05
2.02566e-05
2.01512e-05
2.14821e-05
2.15498e-05
2.35066e-05
2.09223e-05
2.01747e-05
1.94097e-05
1.92713e-05
2.26178e-05
2.26944e-05
2.36181e-05
2.39927e-05
2.82999e-05
3.53779e-05
3.18402e-05
4.00383e-05
4.73552e-05
5.13672e-05
1.95936e-05
2.1839e-05
2.23865e-05
8.13591e-05
0.00018862
0.001751
0.00200856
0.00063487
0.000995058
0.0408576
0.0340512
0.0489965
0.00215496
0.00928478
0.00137102
0.0032474
0.00232645
0.00427086
0.00400733
0.000917656
0.000933701
0.00471028
0.00206113
0.00466811
0.00273978
0.00254718
0.00209334
0.00114612
0.000655631
0.0404573
0.0236499
0.0249733
0.503594
0.0835632
0.731024
0.12632
0.884315
0.728667
1.16124
1.54381
3.05689
4.56555
4.7107
167.259
165.352
25.0631
131.959
162.854
192.902
127.034
28.3237
31.0418
29.3572
214.779
199.753
253.96
243.946
213.954
210.907
205.245
204.304
225.129
221.326
166.669
199.619
169.808
217.778
268.727
280.504
287.925
292.279
256.656
267.463
228.219
217.205
169.236
262.561
278.05
278.063
276.175
271.641
182.445
220.222
270.278
198.129
307.791
305.288
312.856
312.081
292.014
314.227
2.49183e-05
2.54456e-05
1.55639e-05
1.55574e-05
1.55261e-05
1.56215e-05
1.48232e-05
1.43652e-05
1.73598e-05
1.79932e-05
1.59061e-05
1.72426e-05
1.70619e-05
1.77284e-05
2.10409e-05
2.07956e-05
1.93398e-05
1.93799e-05
2.02982e-05
2.03952e-05
2.23644e-05
2.23954e-05
2.41286e-05
2.3604e-05
2.45797e-05
2.3957e-05
2.55019e-05
2.58144e-05
2.6649e-05
2.65091e-05
2.70791e-05
2.55932e-05
2.53618e-05
2.5048e-05
2.25526e-05
2.2474e-05
2.09124e-05
2.07822e-05
2.04471e-05
5.52379e-05
9.70867e-05
0.000110165
0.000139133
0.000114117
0.000118858
0.000119964
0.000103879
0.000218983
0.000129109
4.2176e-05
0.0013983
0.00118321
0.00526962
0.00241095
0.00442673
0.000548016
0.000763442
0.000771077
0.000531274
0.00464649
0.00321253
0.00181395
0.00329236
0.012014
0.00649327
0.0394791
0.035027
0.044835
0.00685539
0.00833052
0.0455522
0.0500789
0.0412683
0.0817905
0.280407
1.01761
13.4966
11.7664
29.2869
7.91718
167.086
152.343
161.129
125.541
184.306
187.742
208.166
206.2
176.31
148.028
249.828
253.14
247.777
258.527
188.668
192.417
187.27
181.839
215.622
211.895
198.612
181.794
188.561
241.245
240.314
253.325
258.456
273.74
220.963
233.191
252.505
237.574
262.565
253.996
266.82
267.881
291.199
284.027
203.763
307.701
268.838
327.9
347.86
311.882
334.525
275.767
304.69
242.929
7.8492e-06
1.86336e-05
1.78251e-05
1.29653e-05
1.57636e-05
1.37943e-05
1.15661e-05
1.17269e-05
1.80439e-05
1.67151e-05
2.0514e-05
1.84514e-05
2.04757e-05
2.1131e-05
1.8563e-05
2.19363e-05
1.76773e-05
1.8163e-05
2.19451e-05
2.2048e-05
2.38923e-05
2.40345e-05
2.57852e-05
2.55167e-05
2.68778e-05
2.62034e-05
2.79403e-05
2.60804e-05
2.71826e-05
2.17161e-05
2.30597e-05
2.02269e-05
2.12084e-05
2.21388e-05
1.95484e-05
1.96712e-05
2.035e-05
2.03701e-05
1.62887e-05
1.62369e-05
1.85797e-05
2.06123e-05
0.000153471
0.000731265
9.1228e-05
9.54541e-05
0.000174609
0.00011224
0.0001048
0.000108958
0.000120855
7.98757e-05
0.00466352
0.00385991
0.00482335
0.00459738
0.000873344
0.0031416
0.00880618
0.0397229
0.00135343
0.0214021
0.00813879
0.0383922
0.00616871
0.0055787
0.0354869
0.033522
0.0294192
0.00545277
0.0446473
0.0498008
0.0286762
0.055704
0.0599238
0.516763
2.56326
6.86881
13.4036
38.0666
35.3991
31.6478
209.644
157.7
174.464
165.72
183.192
191.012
179.663
164.3
232.33
233.586
204.379
219.938
219.627
202.303
203.677
204.274
211.819
217.802
162.733
180.582
218.967
210.832
265.216
243.103
271.571
213.802
243.557
251.338
290.546
285.701
277.709
279.923
277.356
275.899
296.966
297.804
270.997
265.135
272.031
281.362
275.119
280.479
266.226
260.58
261.809
272.93
1.288e-05
1.51682e-05
1.53261e-05
1.61967e-05
1.62421e-05
1.76344e-05
1.67339e-05
1.54141e-05
1.5637e-05
1.86502e-05
1.67262e-05
1.86676e-05
5.51699e-06
1.73898e-05
5.6061e-06
1.10311e-05
1.70002e-05
3.68164e-06
2.31167e-05
7.5937e-06
7.00689e-06
7.92434e-06
9.26927e-06
2.02248e-05
1.47661e-05
2.85638e-05
2.64155e-05
2.74182e-05
2.6205e-05
2.75726e-05
2.64769e-05
2.58714e-05
2.53576e-05
2.55855e-05
2.28713e-05
2.31778e-05
2.21602e-05
2.17973e-05
1.8378e-05
1.9964e-05
1.97042e-05
2.31632e-05
0.000626989
0.000585817
0.000639495
0.000426648
0.000137981
0.000131331
0.000115918
0.000203077
0.000195507
0.000157894
0.00312756
0.00299982
0.00301756
0.000440698
0.00045616
0.000459756
0.000877084
0.000994303
0.0386704
0.0312336
0.0392603
0.0397953
0.0210899
0.0201606
0.0422889
0.0365293
0.0405389
0.0064953
0.0133607
0.0442484
0.0325425
0.0402044
0.0639441
0.16053
2.91602
7.63204
15.7583
200.506
32.2384
185.315
211.688
223.018
158.127
123.702
114.313
116.874
173.905
161.432
167.468
192.927
154.254
144.917
176.125
190.75
60.4845
55.4611
134.619
128.537
188.448
133.293
215.214
217.273
244.853
252.029
167.897
244.148
258.957
252.912
264.648
273.801
258.629
255.368
269.155
266.237
272.568
277.066
263.997
257.053
270.333
114.341
106.15
117.466
263.291
239.201
296.335
285.934
1.54991e-05
1.48242e-05
1.10833e-05
1.57666e-05
1.17718e-05
1.65498e-05
8.55849e-06
1.65511e-05
5.33218e-06
5.03264e-06
5.20949e-06
5.12154e-06
4.57543e-06
5.96318e-06
5.90132e-06
5.35423e-06
5.25747e-06
5.8134e-06
6.20865e-06
6.65057e-06
6.70632e-06
5.68904e-06
2.46903e-05
2.42169e-05
2.89964e-05
2.67301e-05
2.74267e-05
2.92143e-05
2.80014e-05
3.00599e-05
3.01344e-05
2.726e-05
2.76541e-05
2.8677e-05
2.79049e-05
2.79135e-05
2.37464e-05
2.39112e-05
2.34664e-05
2.42241e-05
2.98957e-05
3.17806e-05
2.55713e-05
2.69225e-05
2.43731e-05
0.000162225
0.000154708
0.000606825
0.000637637
0.000655255
0.00160086
0.0020887
0.00187477
0.000130949
0.000275049
0.000176375
0.000282154
0.000203524
0.000452486
0.000227286
0.00075728
0.000301693
0.0231839
0.00306948
0.00326866
0.00215696
0.00285502
0.0431253
0.0383642
0.0449405
0.0427393
0.0267851
0.0199357
0.0148725
2.69474
1.48258
13.1213
3.63494
3.75852
2.28942
17.6745
20.5784
17.8556
201.409
149.459
159.867
34.0631
34.954
160.067
158.47
124.455
122.283
151.129
158.062
140.665
155.251
195.523
169.827
198.827
192.131
225.147
222.507
237.152
228.885
242.652
248.988
236.704
238.234
253.928
253.672
249.591
250.04
263.485
264.178
265.464
266.486
263.704
263.716
259.454
261.295
153.742
274.491
239.769
215.577
286.649
293.111
312.407
307.372
1.18733e-05
2.86679e-05
9.67564e-06
1.00671e-05
1.16422e-05
5.48186e-06
6.30768e-06
6.96318e-06
5.89011e-06
6.27701e-06
5.96912e-06
5.77958e-06
7.58167e-06
1.7068e-05
4.28585e-06
5.54883e-06
5.27729e-06
1.31234e-05
1.25785e-05
1.01053e-05
1.36307e-05
3.26176e-05
3.3977e-05
3.49336e-05
3.97911e-05
2.96723e-05
2.98034e-05
1.44988e-05
1.20183e-05
2.13302e-05
1.5419e-05
3.00578e-05
2.69931e-05
2.48088e-05
2.70766e-05
2.31434e-05
2.46152e-05
2.53029e-05
2.66618e-05
3.0473e-05
3.10613e-05
2.98836e-05
2.78521e-05
2.98326e-05
2.24204e-05
2.94633e-05
3.07017e-05
3.68348e-05
2.20221e-05
0.00010878
9.13098e-05
0.000128645
0.000130961
9.58958e-05
0.000105033
8.1305e-05
0.000145278
0.000116918
0.0001817
0.00016178
0.000247187
0.000148996
0.000424448
0.00208687
0.00241365
0.00275849
0.0144425
0.00242185
0.00240512
0.0352201
0.537772
0.545403
0.915034
1.02226
1.14153
7.6095
128.395
144.116
13.8635
14.773
15.7269
18.1768
17.6796
18.4373
159.669
192.833
67.7287
147.271
160.595
169.229
180.818
167.115
200.601
192.774
213.712
205.701
232.517
232.945
227.341
224.114
227.934
233.635
248.699
246.116
245.352
244.39
247.766
247.423
262.091
262.799
256.398
257.109
266.408
267.747
268.377
269.214
275.27
273.388
280.675
277.399
285.663
280.934
237.998
285.046
297.601
301.419
322.247
325.623
3.27784e-05
4.11256e-05
1.04097e-05
2.02047e-05
5.72745e-06
1.89642e-05
1.75016e-05
1.03843e-05
6.07048e-06
6.27943e-06
4.87482e-06
5.27646e-06
9.48135e-06
1.33445e-05
5.71232e-06
5.83842e-06
1.30294e-05
1.52548e-05
1.0504e-05
4.60821e-05
3.43714e-05
2.42144e-05
3.11891e-05
1.55734e-05
9.13359e-06
1.72022e-05
0.000125892
0.000167072
0.000139705
0.000134662
8.28599e-05
3.01034e-05
2.61196e-05
1.92746e-05
2.123e-05
2.37299e-05
2.52808e-05
2.67226e-05
3.29842e-05
3.34807e-05
2.32722e-05
1.50418e-05
2.86075e-05
2.12628e-05
3.47405e-05
5.43026e-05
7.02353e-05
6.22721e-05
2.98926e-05
7.11802e-05
2.14433e-05
6.69258e-05
2.53722e-05
1.74662e-05
3.6952e-05
3.40908e-05
3.40018e-05
8.60107e-05
0.000113156
0.000106633
0.000119138
0.000125451
0.00137739
0.00173461
0.00176806
0.00184079
0.234464
0.2114
0.230574
0.21195
0.575271
0.71275
0.99001
0.93299
1.06291
1.24382
14.507
17.7866
19.9981
15.2634
20.1171
16.1711
18.2112
17.8425
44.4521
73.4462
65.4176
111.297
192.045
192.981
219.108
216.05
226.45
223.643
238.585
233.794
220.766
230.784
215.869
220.838
244.926
233.339
252.146
254.44
253.232
251.839
252.42
252.556
254.2
258.168
261.373
258.92
267.929
268.667
274.54
274.084
279.942
280.687
285.238
284.395
290.357
288.527
277.723
272.687
299.359
295.911
309.37
314.457
5.71923e-05
9.34354e-05
4.90973e-05
8.72543e-05
4.50116e-05
4.83358e-05
1.03951e-05
9.29428e-06
7.79152e-06
7.21666e-06
6.56841e-06
1.52636e-05
1.55344e-05
1.31032e-05
1.04013e-05
6.65589e-06
1.56081e-05
8.11551e-05
6.08216e-05
6.14685e-05
5.90941e-05
2.76171e-05
2.64336e-05
2.98436e-05
4.91912e-05
0.000121815
4.47912e-05
2.54077e-05
4.34084e-05
3.52984e-05
7.78392e-05
6.69697e-05
3.3508e-05
2.798e-05
4.55915e-05
5.78892e-05
4.96088e-05
5.13503e-05
4.76923e-05
4.64218e-05
6.7071e-05
5.05193e-05
7.38439e-05
6.12143e-05
6.8188e-05
8.33304e-05
6.03071e-05
9.07834e-05
7.75493e-05
0.000107466
7.09699e-05
9.92754e-05
4.41208e-05
5.76574e-05
4.45657e-05
0.000125275
7.02511e-05
0.00011105
0.000142269
0.000168927
0.000947023
0.00102599
0.00121994
0.000588292
0.000366005
0.000296241
0.187357
0.281013
0.00524012
0.222943
0.359763
0.414136
0.303736
0.899927
8.13264
2.04548
14.9369
4.14487
9.13495
11.9258
17.1437
22.9728
21.8152
22.4069
182.699
168.945
155.976
163.22
239.644
231.111
249.336
249.799
235.347
242.742
219.408
233.543
221.905
214.99
238.285
231.155
246.447
252.015
239.845
242.49
266.808
260.815
256.741
257.057
245.546
250.338
273.767
271.071
276.066
274.918
284.887
284.024
285.813
286.518
284.87
287.09
284.525
286.096
277.748
274.833
291.004
289.9
290.828
291.279
0.000122677
0.000325902
0.00025208
0.000161823
6.48942e-05
9.66456e-05
5.64678e-05
2.57715e-05
4.88026e-06
1.45322e-05
1.4738e-05
5.32953e-05
1.91519e-05
1.89281e-05
3.68429e-05
9.10635e-05
9.53186e-05
9.54122e-05
7.21748e-05
6.8859e-05
2.81926e-05
0.000137754
8.11341e-05
0.000452482
0.000359909
0.000540921
0.000549345
0.00050203
0.00242826
0.00140156
0.000318069
0.000208808
0.000110719
4.37132e-05
7.28012e-05
7.14325e-05
3.80627e-05
5.736e-05
6.34054e-05
9.10397e-05
9.3075e-05
0.000111779
8.5075e-05
0.000113434
9.38086e-05
0.000114698
0.000101452
0.000110265
0.000118277
0.000122024
0.000109213
0.000129565
1.10253e-05
0
0.000121816
3.18387e-05
8.01527e-05
1.82919e-05
5.43923e-05
3.10334e-05
2.70042e-05
2.43136e-05
2.88217e-05
0
2.16643e-05
0.00233223
0.000328983
0.00418841
0.00389196
0.00412484
0.0969844
0.361121
0.050815
7.40952
12.2558
6.48219
200.93
17.2504
30.633
23.523
19.9071
19.7354
14.8455
19.2709
17.1269
171.946
154.784
132.914
224.136
230.068
236.43
233.509
232.262
225.702
194.761
207.185
232.471
231.602
246.626
244.186
208.785
223.337
255.792
246.97
282.455
280.226
259.018
259.338
264.366
259.425
275.633
280.687
282.432
280.95
285.271
285.917
284.96
285.001
282.53
283.403
277.03
280.475
290.153
287.16
287.41
288.954
285.194
285.305
0.00111937
0.00352403
0.00613565
0.0042506
0.000904552
0.000148851
0.000115295
0.000129495
0.00026588
0.000864438
0.000592484
0.000793155
0
0
0.000425571
0.000135655
0.000159364
0.000120149
8.26117e-05
0.00013926
0.00027544
0.000367301
0.000422615
0.000494426
0.00039688
0.000633731
0.000642435
0.000698661
0.000552318
0.000627472
0.000158759
0.000144403
0.000124923
7.10245e-05
6.90613e-05
0.000120876
9.13395e-05
6.76171e-05
0.000101403
0.00012753
0.000121837
0.000140866
0.000123919
0.000150118
0.000123346
0.000151506
0.000135024
0.000143784
0.000159682
0.00013517
0.000148962
0.000129499
2.12986e-05
1.54596e-05
4.38678e-05
1.12002e-05
1.04676e-05
1.19785e-05
9.37533e-06
5.34447e-06
3.35983e-05
3.40485e-05
5.00453e-05
6.85773e-05
0.00051139
1.63051e-05
9.21328e-05
0.000171764
1.11889e-07
3.42542e-05
5.39749e-05
5.70992e-05
7.53797e-05
0.000528548
6.05448e-06
16.8754
123.499
138.1
190.215
48.2278
148.103
148.316
175.891
20.1283
22.8703
14.083
38.9278
33.1503
37.7727
118.55
238.273
221.236
211.457
210.967