# vtk DataFile Version 3.0
vtk output
ASCII
DATASET POLYDATA
POINTS 24578 float
-151.53 81.83 75.23
-146.76 79.98 77.9
-147.26 82.51 76.57
-151.22 79.35 76.36
-146.3 77.32 78.47
-150.76 76.75 77.01
-146.01 74.82 79.56
-150.4 74.19 77.98
-145.43 72.07 79.86
-149.95 71.56 78.66
-145.02 69.6 80.58
-149.55 69.11 79.46
-144.64 67.21 81.53
-149.14 66.64 80.2
-144.27 64.77 82.34
-148.68 64.12 80.8
-144.06 62.18 83.1
-148.26 61.63 81.51
-143.83 59.57 83.96
-148.2 59.14 82.73
-143.54 56.98 84.63
-148.02 56.58 83.6
-143.3 54.28 84.95
-147.52 53.77 83.62
-142.71 51.53 84.98
-147.03 50.98 83.68
-142.34 49.05 85.71
-146.66 48.52 84.06
-142.24 46.57 86.6
-146.26 46.05 84.34
-145.97 43.63 84.94
-141.82 44.09 87.11
-141.56 41.44 87.04
-145.67 41.21 85.5
-140.98 38.76 87.5
-145.29 38.66 85.7
-140.75 36.16 87.85
-144.89 36.1 85.85
-144.62 33.53 86.3
-140.46 33.57 88.45
-140.13 30.94 88.56
-144.22 30.94 86.41
-143.81 28.2 86.49
-139.84 28.2 88.9
-143.44 25.45 86.68
-139.6 25.51 89.44
-143.18 22.67 87.12
-139.22 22.78 89.44
-142.9 19.88 87.51
-138.79 20.04 89.71
-142.6 17.15 87.83
-138.39 17.32 89.75
-137.91 14.61 89.73
-142.25 14.42 88.03
-141.99 11.68 88.46
-137.6 11.89 89.94
-141.61 8.95 88.57
-137.22 9.16 90.05
-141.13 6.27 88.48
-136.86 6.45 90.3
-140.68 3.58 88.47
-136.37 3.76 90.16
-140.25 0.89 88.51
-135.88 1.07 90.03
-139.71 -1.79 88.26
-135.64 -1.76 90.02
-135.64 -4.55 89.75
-140 -4.44 88.09
-135.69 -7.09 89
-140.34 -7.12 88.03
-135.79 -9.62 88.23
-140.37 -9.69 87.25
-135.84 -12.19 87.54
-140.43 -12.27 86.54
-135.99 -14.75 87
-140.5 -14.79 85.8
-136.21 -17.35 86.64
-140.62 -17.33 85.19
-136.42 -19.93 86.21
-140.85 -19.94 84.82
-136.49 -22.42 85.34
-140.79 -22.34 83.7
-136.45 -24.91 84.43
-140.78 -24.79 82.73
-136.55 -27.44 83.74
-140.84 -27.3 81.99
-136.57 -29.97 82.98
-140.97 -29.86 81.42
-136.73 -32.54 82.43
-141.02 -32.36 80.63
-136.76 -35.12 81.64
-141.09 -34.97 79.94
-141.32 -37.69 79.69
-136.83 -37.72 80.96
-141.45 -40.33 79.13
-136.9 -40.34 80.32
-137.11 -43 79.41
-141.48 -42.91 78.35
-141.57 -45.38 77.61
-137.04 -45.54 78.64
-141.59 -47.8 76.7
-137.03 -47.91 77.56
-141.86 -50.43 76.49
-137.15 -50.39 76.9
-141.9 -52.84 75.63
-137.27 -52.84 76.11
-141.91 -55.11 74.4
-137.53 -55.19 75.26
-137.48 -57.49 74.21
-141.9 -57.35 73.07
-142.03 -59.74 72.14
-137.7 -59.92 73.43
-142.25 -62.22 71.44
-137.97 -62.48 72.92
-142.57 -64.67 70.67
-138.15 -65.14 72.4
-142.87 -67.1 69.86
-138.34 -67.41 71.12
-143.16 -69.56 69.09
-138.58 -69.8 70.17
-143.42 -71.97 68.22
-138.72 -72 68.84
-143.42 -74.03 66.78
-138.71 -74.17 67.59
-143.52 -76.26 65.69
-138.9 -76.5 66.65
-143.64 -78.59 64.8
-139.03 -78.91 65.88
-143.64 -80.66 63.43
-139.36 -81.09 64.3
-142.41 80.53 78.87
-142.88 83.09 77.59
-141.83 77.87 79.86
-141.49 75.33 80.8
-140.97 72.61 81.19
-140.47 70.13 81.77
-140.01 67.69 82.47
-139.94 65.21 83.59
-139.84 62.72 84.64
-139.44 60.04 85.13
-139.12 57.42 85.86
-138.88 54.8 86.42
-138.56 52.14 86.78
-138.19 49.56 87.25
-137.83 46.99 87.76
-137.58 44.31 88.01
-137.31 41.63 88.23
-137.03 38.95 89.21
-136.57 36.22 89.77
-136.22 33.57 90.06
-135.88 30.91 90.36
-135.74 28.24 91.1
-135.47 25.56 91.56
-134.94 22.88 91.41
-134.47 20.19 91.43
-134.08 17.49 91.57
-133.61 14.8 91.52
-133.09 12.1 91.2
-132.71 9.37 91.23
-132.3 6.67 91.32
-131.94 3.96 91.53
-131.76 1.11 91.67
-131.5 -1.71 91.62
-131.31 -4.41 90.89
-131.1 -7.09 90.13
-131.35 -9.7 89.79
-131.55 -12.29 89.33
-131.63 -14.81 88.62
-131.74 -17.34 87.96
-131.85 -19.85 87.19
-132.06 -22.42 86.66
-132.19 -25.02 86.17
-132.25 -27.57 85.48
-132.26 -30.09 84.65
-132.44 -32.72 84.26
-132.56 -35.36 83.72
-132.63 -37.97 83.04
-132.75 -40.58 81.94
-132.83 -43.16 80.72
-132.77 -45.71 79.94
-132.75 -48.3 79.25
-132.77 -50.64 78.12
-132.8 -52.99 77
-132.95 -55.32 76.2
-133.13 -57.69 75.53
-133.33 -60.11 74.69
-133.5 -62.48 73.72
-133.64 -65.09 73
-133.72 -67.59 72.04
-133.86 -69.81 70.74
-134.01 -72.03 69.43
-134.18 -74.44 68.63
-134.35 -76.86 67.84
-134.77 -79.33 66.76
-135.07 -81.54 65.2
-138.04 81.11 79.93
-138.51 83.66 78.64
-137.48 78.45 80.95
-136.81 75.7 81.58
-136.53 73.2 82.68
-136.2 70.85 83.66
-136.01 68.35 84.53
-135.78 65.76 85.17
-135.49 63.19 85.82
-135.19 60.56 86.38
-134.98 57.99 87.45
-134.76 55.37 88.25
-134.53 52.77 88.88
-134 50.11 89.1
-133.65 47.3 89.03
-133.3 44.56 89.42
-133.29 41.92 90.17
-132.89 39.2 91
-132.5 36.43 91.58
-132.05 33.68 92.21
-131.7 30.98 92.36
-131.44 28.31 92.66
-131.04 25.67 93.02
-130.62 23.02 93.01
-130.15 20.36 93.11
-129.82 17.66 93.35
-129.27 14.97 93.05
-128.74 12.27 92.73
-128.4 9.55 92.87
-127.96 6.85 92.86
-127.84 4 93.22
-127.59 1.17 93.17
-127.27 -1.64 92.97
-127.25 -4.36 92.57
-127.15 -7.08 92.07
-127.17 -9.83 91.83
-127.29 -12.38 91.16
-127.29 -14.86 90.23
-127.44 -17.42 89.6
-127.57 -19.97 88.96
-127.76 -22.53 88.35
-127.82 -25.1 87.72
-127.85 -27.64 86.95
-127.95 -30.27 86.46
-128.2 -32.95 86.24
-128.25 -35.54 85.49
-128.5 -38.26 84.8
-128.59 -40.83 83.55
-128.62 -43.36 82.3
-128.5 -45.86 81.36
-128.57 -48.51 80.64
-128.51 -50.96 79.6
-128.63 -53.39 78.68
-128.82 -55.89 78.24
-129.15 -58.39 77.85
-129.06 -60.46 76.29
-128.99 -62.4 74.44
-128.98 -64.79 73.19
-129.01 -67.15 71.96
-128.97 -69.58 70.84
-129.28 -72.05 69.98
-129.48 -74.55 69.36
-130.01 -77.21 68.65
-130.42 -79.71 67.63
-130.79 -82.03 66.21
-133.82 81.84 81.46
-134.36 84.47 80.38
-133.19 79.09 82.22
-132.49 76.28 82.7
-131.95 73.65 83.71
-131.93 71.29 85
-131.87 68.9 86.17
-131.5 66.27 86.57
-131.13 63.64 86.94
-130.87 61.02 87.58
-130.68 58.45 88.47
-130.46 55.86 89.34
-130.18 53.24 90.02
-129.88 50.44 90.31
-129.64 47.69 90.79
-129.42 44.94 91.36
-129.23 42.2 92.03
-128.71 39.37 92.41
-128.45 36.65 93.48
-128.03 33.86 94.03
-127.47 31.03 94.24
-127.19 28.41 94.71
-126.88 25.78 95.12
-126.32 23.16 94.88
-125.8 20.53 94.74
-125.36 17.84 94.64
-124.86 15.16 94.43
-124.49 12.44 94.52
-124.2 9.71 94.8
-123.95 6.88 94.78
-123.68 4.05 94.73
-123.4 1.23 94.62
-123.18 -1.6 94.69
-123.37 -4.41 94.84
-123.31 -7.12 94.32
-123.16 -9.79 93.63
-122.95 -12.42 92.76
-123.09 -14.99 92.12
-123.27 -17.57 91.56
-123.4 -20.13 90.9
-123.5 -22.66 90.14
-123.53 -25.22 89.42
-123.57 -27.78 88.7
-123.68 -30.42 88.22
-123.74 -33.02 87.62
-123.94 -35.69 86.77
-124.14 -38.36 85.91
-124.27 -40.96 84.88
-124.51 -43.67 84.17
-124.44 -46.18 83.04
-124.36 -48.68 81.9
-124.32 -51.14 80.87
-124.34 -53.66 80.01
-124.65 -56.22 79.72
-124.85 -58.64 79.12
-124.76 -60.62 77.46
-124.57 -62.46 75.52
-124.49 -64.69 73.94
-124.51 -67.1 72.74
-124.57 -69.65 71.8
-124.65 -72.26 70.99
-125.14 -74.86 70.13
-125.57 -77.36 69.04
-126.01 -79.84 67.96
-126.39 -82.16 66.58
-129.58 82.52 82.46
-130.23 85.32 82
-128.9 79.77 83.09
-128.4 77.11 83.84
-127.98 74.41 84.96
-127.56 71.77 85.9
-127.33 69.24 86.57
-127.15 66.76 87.43
-126.86 64.14 88.01
-126.52 61.49 88.81
-126.36 58.96 89.84
-126.14 56.38 90.8
-125.97 53.53 91.15
-125.51 50.64 91.5
-125.42 47.93 92.31
-125.22 45.19 93.14
-125.05 42.45 93.81
-124.64 39.66 94.38
-124.31 36.88 95.2
-123.77 34.05 95.42
-123.26 31.23 95.69
-122.78 28.52 96.11
-122.44 25.87 96.38
-121.98 23.27 96.26
-121.42 20.65 96.06
-121.04 17.96 96.08
-120.68 15.29 96.36
-120.38 12.57 96.56
-120.17 9.75 96.72
-119.91 6.93 96.66
-119.55 4.12 96.37
-119.27 1.3 96.28
-119.07 -1.54 96.32
-119.25 -4.36 96.51
-119.22 -7.1 96.08
-119.04 -9.77 95.31
-119 -12.5 94.8
-118.91 -15.21 94.19
-119.08 -17.79 93.59
-119.2 -20.38 92.98
-119.3 -22.91 92.18
-119.31 -25.47 91.43
-119.31 -28 90.63
-119.33 -30.55 89.87
-119.45 -33.15 88.84
-119.6 -35.8 87.91
-119.83 -38.5 87.17
-120.05 -41.2 86.43
-120.26 -43.87 85.57
-120.32 -46.42 84.63
-120.24 -48.94 83.59
-120.24 -51.46 82.7
-120.29 -53.99 81.83
-120.1 -56.26 80.6
-120.22 -58.48 79.45
-120.33 -60.66 78.2
-120.24 -62.81 76.84
-120.26 -65.2 75.6
-120.18 -67.48 74.2
-120.23 -70.02 73.25
-120.52 -72.67 72.16
-120.81 -75.19 70.96
-121.18 -77.58 69.65
-121.52 -79.9 68.24
-121.92 -82.27 66.97
-125.25 83.17 83.41
-125.88 85.88 82.84
-124.6 80.45 83.94
-124.22 77.72 84.75
-123.94 75.09 85.93
-123.46 72.43 86.81
-122.93 69.71 87.46
-122.73 67.14 88.15
-122.59 64.64 89.06
-122.25 62 89.9
-121.95 59.4 90.9
-121.96 56.7 91.92
-121.73 53.8 92.2
-121.47 50.99 93.04
-121.27 48.22 94.07
-121.07 45.45 94.8
-120.88 42.69 95.58
-120.53 39.9 96.26
-120.06 37.06 96.59
-119.52 34.23 96.77
-119.19 31.45 97.53
-118.64 28.71 97.7
-118.07 25.97 97.81
-117.65 23.36 97.86
-117.2 20.75 97.82
-116.76 18.09 97.81
-116.45 15.42 98.16
-116.25 12.62 98.27
-115.94 9.82 98.09
-115.72 7.01 98.16
-115.43 4.19 98.08
-115.24 1.34 98.13
-115.02 -1.5 98.11
-115.03 -4.27 97.86
-115.05 -7.04 97.62
-115.01 -9.78 97.12
-114.91 -12.5 96.46
-114.83 -15.21 95.87
-114.79 -17.94 95.36
-114.95 -20.55 94.79
-115.09 -23.14 94.17
-115.09 -25.69 93.41
-115.09 -28.25 92.66
-115.19 -30.82 91.55
-115.34 -33.43 90.58
-115.56 -36.16 89.86
-115.65 -38.76 88.81
-115.73 -41.32 87.6
-115.89 -43.96 86.62
-115.94 -46.5 85.75
-115.97 -49.02 84.82
-116.06 -51.62 84.1
-116.16 -54.22 83.41
-116 -56.46 81.98
-115.78 -58.59 80.34
-115.73 -60.7 78.9
-115.82 -63.01 77.89
-115.91 -65.56 77.02
-115.85 -67.86 75.66
-116.07 -70.39 74.35
-116.45 -73.24 73.66
-116.73 -75.78 72.45
-116.87 -78.01 70.66
-117.13 -80.1 68.85
-117.46 -82.37 67.36
-120.93 83.58 83.84
-121.35 86.18 83.25
-120.43 80.92 84.76
-120.24 78.29 85.68
-119.85 75.73 86.84
-119.39 73.08 87.68
-118.97 70.39 88.56
-118.52 67.71 89.38
-118.27 65.1 89.93
-117.89 62.43 90.71
-117.77 59.68 91.68
-117.62 56.89 92.64
-117.53 54.11 93.38
-117.25 51.28 94.27
-116.99 48.44 95.07
-116.61 45.56 95.63
-116.37 42.76 96.18
-116.01 39.98 96.85
-115.62 37.17 97.41
-115.23 34.39 98.02
-114.97 31.62 98.96
-114.53 28.91 99.33
-113.9 26.15 99.26
-113.4 23.47 99.53
-113.04 20.85 99.72
-112.61 18.2 99.71
-112.34 15.45 99.77
-112.11 12.66 99.75
-111.7 9.9 99.43
-111.54 7.08 99.65
-111.31 4.26 99.65
-111.1 1.42 99.6
-110.91 -1.42 99.76
-110.84 -4.17 99.3
-110.76 -6.92 98.71
-110.8 -9.71 98.47
-110.76 -12.46 97.96
-110.67 -15.19 97.39
-110.65 -17.93 96.92
-110.56 -20.62 96.27
-110.66 -23.19 95.59
[...]
CELL_DATA 49152
SCALARS Temperature float 1
LOOKUP_TABLE default
0.000355568
0.000332288
0.00142324
0.000496609
0.000409315
0.000717737
0.00171296
0.00162796
0.00159425
0.00163404
0.00149974
0.001543
0.00139851
0.0011747
0.00080787
0.000874476
0.000914318
0.00102107
0.00232302
0.00244327
0.020878
0.0289017
0.0179819
0.00789278
0.00724141
0.0262385
0.0253842
0.0455529
0.0471831
0.0440658
0.0688031
0.030474
0.0272534
0.472767
0.0585556
0.221145
0.0756544
0.137729
1.62219
1.46662
1.52572
1.78015
1.05384
2.0399
2.20234
2.29232
2.00316
2.01304
1.95897
2.06239
0.923376
0.238848
0.377587
0.374819
0.726118
0.763677
1.47559
0.619839
2.4838
6.09843
1.49461
2.93833
3.11137
2.63993
3.00219
2.57668
240.469
75.6734
265.397
266.426
255.864
257.236
231.175
256.139
161.712
223.84
163.97
129.781
265.728
287.802
265.646
270.327
226.957
235.505
239.854
208.114
200.249
241.392
239.216
225.057
84.0505
242.778
219.157
239.807
266.256
261.731
259.219
265.739
280.871
299.77
105.217
269.242
290.572
280.948
318.408
277.221
300.126
314.363
278.883
253.49
240.871
182
237.268
168.688
233.832
303.642
249.54
279.008
270.259
322.758
333.268
317.585
304.749
284.932
281.629
263.478
321.271
324.006
0.000263171
0.000283568
0.00157589
0.00166927
0.000282047
0.000379093
0.00035047
0.000356605
0.000216623
0.00020652
0.000151866
0.000219911
0.000222274
0.00157206
0.000969698
0.00179152
0.00195011
0.00174204
0.00233927
0.00261888
0.00412553
0.00629833
0.00681774
0.027566
0.0228647
0.0124709
0.0116924
0.0103352
0.00915782
0.0260891
0.00908259
0.0166426
0.00448396
0.0113214
0.0525932
0.072442
0.067721
0.0702682
0.0911533
0.0844066
0.078416
0.214601
0.607346
0.594426
2.49379
1.99659
1.30702
0.563788
0.306949
1.49405
0.856591
0.441301
0.858097
0.777239
0.252824
1.12047
1.1218
1.12168
1.6345
0.546613
2.76018
0.401612
1.75089
1.56498
244.553
130.7
262.225
259.322
157.379
245.832
166.429
224.62
227.88
194.949
225.387
142.2
254.809
206.478
227.54
267.465
202.506
262.492
225.913
224.497
250.3
242.834
71.0249
176.333
174.146
227.058
201.359
201.943
257.978
215.321
282.443
259.015
257.484
258.014
290.246
229.98
220.276
295.547
259.046
301.532
275.825
273.324
299.251
241.31
252.131
262.391
201.546
291.054
231.588
267.033
318.433
284.334
283.815
321.529
323.697
321.624
321.222
267.728
282.176
260.642
259.715
284.9
323.849
321.918
0.000213736
0.000225756
0.00146212
0.00148014
0.00199532
0.00190317
0.00167649
0.00032378
0.00014253
0.000264709
0.000256495
0.000256165
0.000272516
0.000242516
0.00076887
0.00128965
0.00216815
0.0021219
0.00125424
0.00201023
0.00604483
0.0187081
0.0220125
0.029773
0.0299301
0.0256282
0.0205976
0.00632247
0.00454855
0.00468247
0.00504409
0.00423778
0.00500153
0.0298966
0.0434749
0.0552864
0.0600057
0.324323
0.468396
0.241667
0.126299
0.13454
0.124619
0.188571
0.340658
1.33139
0.34976
0.244228
0.287801
0.326091
1.26154
1.01564
0.282436
0.253343
0.211879
0.223742
0.246866
0.222585
0.265082
0.286552
0.291738
1.31396
4.03563
97.7902
178.201
241.59
49.5678
65.6941
67.7157
73.4089
199.711
97.7437
261.131
236.033
216.019
223.338
217.262
236.094
196.338
175.726
217.012
184.955
248.081
238.377
57.4993
40.733
60.1036
74.4049
223.318
179.76
201.253
215.201
280.438
270.671
287.84
284.326
249.863
274.995
240.6
237.677
282.714
289.036
264.316
281.944
91.9266
106.509
101.456
115.326
306.427
250.018
338.669
295.524
266.156
322.486
301.95
326.1
333.224
314.773
330.295
285.166
282.203
255.405
275.561
245.888
288.11
280.827
323.539
308.382
0.000275534
0.000258972
0.00139466
0.000990312
0.00208277
0.00203884
0.00150519
0.000588553
0.00063252
0.000402685
0.000535022
0.000804944
0.00204265
0.00165825
0.00209398
0.00215742
0.00225466
0.0022242
0.0018748
0.00204399
0.0023283
0.00226105
0.00248659
0.00249026
0.00493821
0.0065108
0.00321294
0.0109759
0.0116059
0.0097944
0.0087778
0.0101666
0.0215694
0.00841565
0.00804361
0.0321924
0.0988094
0.0829228
0.354678
0.145995
0.0435701
0.0497603
0.118718
1.19865
2.38243
0.473563
0.864681
0.411524
0.212548
0.377347
0.29393
0.315232
0.252038
0.242613
0.203168
0.263389
0.231037
0.240733
0.297807
1.39368
1.45224
1.99421
4.4319
10.4908
12.5152
56.9498
129.758
131.105
209.737
63.3543
257.906
226.425
218.794
258.339
167.19
189.621
199.754
196.521
224.915
194.144
230.195
216.251
233.443
239.992
159.081
57.5096
72.6504
226.225
252.601
249.943
254.739
237.217
280.688
293.241
230.974
280.966
276.319
266.04
281.335
243.423
284.335
285.513
270.802
263.366
89.4656
101.148
91.9822
226.72
335.301
330.586
351.786
347.563
329.87
314.589
313.436
309.526
304.484
282.254
272.453
266.945
245.315
267.063
248.286
300.797
296.176
302.078
325.17
322.603
0.00183508
0.00118586
0.00208228
0.00203106
0.00205577
0.00217915
0.000539573
0.000787864
0.00105304
0.00060516
0.0022662
0.00215678
0.00253778
0.00255358
0.00250928
0.00246867
0.00223606
0.0022125
0.00172272
0.00152615
0.00147612
0.00125923
0.00252999
0.00256968
0.00304838
0.00305976
0.00252977
0.00226909
0.00752109
0.0117713
0.0105295
0.0130315
0.0119337
0.0235942
0.0310748
0.0244823
0.018843
0.00130769
0.00174853
0.000824865
0.0017005
0.00108534
0.00457049
0.0577994
0.694666
0.899324
0.883209
0.83399
0.191469
0.215606
0.265751
0.172909
0.24999
1.33354
1.24563
1.33092
1.66835
3.19357
4.46182
1.27989
3.68204
7.87325
6.83084
5.52004
5.31294
5.27751
158.95
189.353
245.151
235.497
188.945
250.289
195.64
184.309
163.526
146.438
179.989
191.469
225.028
220.027
224.523
219.386
235.663
223.011
231.348
172.29
267.002
230.291
266.202
258.923
244.071
255.508
238.988
266.836
242.649
225.61
267.185
282.959
275.835
282.189
255.803
269.098
246.085
244.785
102.52
314.629
247.559
318.255
324.955
343.001
325.609
348.724
299.309
317.171
306.604
293.866
267.997
269.043
251.739
274.819
248.401
296.804
287.706
312.004
294.526
326.568
324.98
315.707
0.00216786
0.00223237
0.00223515
0.00220992
0.00204226
0.0020872
0.00118525
0.00137239
0.00197037
0.00193369
0.00240497
0.00236985
0.0024457
0.00240668
0.00246125
0.00246259
0.00235027
0.00232352
0.00219738
0.0022274
0.00238036
0.00231179
0.00300635
0.00304373
0.002956
0.00219131
0.00146478
0.00174421
0.0111826
0.00984903
0.0100794
0.0131654
0.0162591
0.0252214
0.0282413
0.00263473
0.00398422
0.00291876
0.00218239
0.000905568
0.00631691
0.00731684
0.00825241
0.0841332
0.10907
0.170456
0.161145
0.197709
0.161601
0.16193
0.187323
0.215502
0.183037
0.156664
0.790622
0.770356
1.33409
0.338454
1.35155
9.54967
8.44412
11.3438
13.3301
14.0451
4.18769
2.3168
19.8636
172.705
195.473
242.805
219.186
189.173
212.461
216.049
187.528
194.384
185.293
197.965
198.286
229.158
229.61
227.509
228.267
234.986
263.048
237.929
254.38
259.919
205.425
235.733
254.975
217.639
281.906
243.239
272.547
262.981
271.939
276.227
277.024
285.733
270.882
238.58
260.944
224.58
313.379
305.144
330.393
307.149
328.108
318.429
326.577
291.326
304.942
260.578
308.3
310.865
268.461
297.263
277.384
198.669
275.361
275.777
321.111
301.459
334.759
319.921
310.624
329.496
0.00228419
0.00233581
0.0020937
0.00232575
0.00188125
0.00201433
0.00115999
0.00110727
0.00214506
0.00214161
0.00222454
0.00234202
0.00219411
0.00219964
0.00249675
0.00240843
0.0027444
0.0027293
0.00276048
0.00274891
0.00293865
0.00300583
0.0033411
0.00306749
0.00294252
0.00287568
0.00286818
0.00349173
0.00362561
0.00381122
0.00398763
0.00418773
0.00430581
0.00441002
0.00463292
0.00443818
0.00454774
0.00371523
0.00382055
0.00387477
0.00253937
0.0117424
0.062486
0.0626475
0.0463426
0.0707765
1.11347
0.928088
1.33535
0.145655
0.260217
0.0840543
0.112037
0.56023
0.253861
0.0812818
0.027568
0.0447714
1.45654
0.171478
2.0687
4.40984
6.95246
4.49482
178.398
31.5604
222.184
92.9639
64.9855
206.255
208.032
232.605
216.572
219.577
185.679
196.242
229.272
207.725
233.559
223.73
253.615
252.666
237.062
247.754
255.2
272.963
255.006
256.012
208.481
211.435
283.708
271.839
303.249
291.875
273.133
270.318
267.216
266.43
278.437
274.782
247.944
260.059
246.29
266.699
303.916
318.747
324.673
330.283
303.639
315.392
290.144
280.6
259.262
302.082
314.361
314.392
312.892
305.381
243.415
261.828
301.295
259.781
339.773
334.939
341.697
340.027
321.941
338.558
0.00205911
0.00222336
0.00203378
0.00203933
0.00203468
0.00205565
0.00194124
0.00187768
0.00229913
0.00239765
0.00210657
0.00231028
0.00228603
0.00238984
0.00284422
0.00281631
0.00262075
0.00263682
0.00276875
0.00278329
0.00306263
0.00306929
0.00332696
0.00331539
0.00350205
0.00350616
0.00383531
0.00396481
0.00424667
0.00429648
0.00452736
0.00434058
0.00442263
0.00441894
0.00419744
0.00432495
0.00418949
0.00418542
0.00409789
0.00508083
0.00733358
0.0082696
0.0102809
0.00840344
0.00826394
0.00802229
0.00715324
0.00802124
0.00451048
0.00293333
0.0883884
0.0717339
0.823623
0.302325
0.28546
0.105544
0.0984028
0.102418
0.245939
2.34565
2.3365
3.40073
11.5522
163.75
157.262
206.32
189.173
223.781
130.687
43.501
186.163
206.181
28.6841
24.2781
38.5625
146.336
206.484
212.706
274.359
230.886
258.078
251.503
253.983
240.386
257.689
260.11
270.161
268.452
254.597
238.975
292.145
296.103
292.261
304.926
264.778
267.426
265.183
261.756
277.734
274.548
267.769
255.817
258.765
284.433
283.76
298.17
301.865
319.298
285.718
296.171
307.775
292.926
309.649
298.944
308.509
310.084
328.595
316.66
257.083
326.199
288.257
337.714
359.299
329.528
352.447
308.572
333.917
294.064
0.000591602
0.00167884
0.00164708
0.00169273
0.00207542
0.00180826
0.00149394
0.00152292
0.00239053
0.0022092
0.00272633
0.00243961
0.00270863
0.00281949
0.00245055
0.00296317
0.00238166
0.00246547
0.00303459
0.00301045
0.00330134
0.00329876
0.00355929
0.00351945
0.00370573
0.00367228
0.0040113
0.00389943
0.00417112
0.00345124
0.00372547
0.00328359
0.00352375
0.00386991
0.00356083
0.00376061
0.0040576
0.00434724
0.00291394
0.00312268
0.00308641
0.00345973
0.0113383
0.053511
0.00319686
0.00609626
0.00683633
0.00819213
0.0076286
0.00792548
0.00509887
0.00577402
0.782353
0.253817
0.0999993
0.0977136
0.0935962
0.0916234
1.01173
0.763088
19.1853
24.6358
32.8364
204.481
119.179
33.7606
176.57
169.685
146.005
125.038
175.652
17.1365
28.304
27.398
27.7319
32.5011
130.095
218.448
238.818
271.97
254.019
242.507
285.196
253.666
258.926
254.041
260.442
265.785
261.14
252.345
285.158
286.433
269.752
283.108
282.962
268.065
268.752
269.194
273.216
278.353
254.246
263.769
281.68
274.845
309.531
284.956
306.865
273.867
292.299
296.765
326.794
319.813
313.182
316.796
314.693
312.36
330.248
331.588
309.24
305.399
310.797
317.041
311.798
315.412
303.649
300.002
300.862
308.107
0.0015805
0.000456872
0.00191038
0.00206985
0.00207026
0.00227459
0.00215113
0.00197324
0.00199432
0.00243761
0.00231635
0.00258662
0.000684825
0.00240946
0.000706998
0.00151895
0.00235679
0.000386391
0.00320672
0.00100237
0.000941407
0.0010478
0.00124879
0.00279696
0.00204027
0.00394082
0.00363851
0.0037747
0.00388007
0.0042048
0.00442398
0.00442506
0.00458682
0.00491753
0.00463872
0.00497225
0.004893
0.0052683
0.00452418
0.00484872
0.00470647
0.0051831
0.0453117
0.0418987
0.0455173
0.0315481
0.0093894
0.00886399
0.00840618
0.00864791
0.00693557
0.011399
0.175982
0.170533
0.0895386
0.116663
0.109181
0.130972
0.1638
0.203352
119.601
176.778
203.84
203.404
118.034
114.329
195.162
175.979
191.539
156.965
33.4756
19.9315
27.9826
28.2303
211.86
112.092
264.942
198.368
217.907
258.509
215.202
267.311
279.074
288.756
263.233
252.494
251.257
251.72
264.132
257.904
259.714
274.417
262.045
258.693
267.05
275.706
255.318
255.228
260.615
259.191
274.488
250.701
279.462
281.186
297.609
305.009
264.062
294.523
304.757
297.333
306.116
319.764
308.936
304.459
314.331
310.029
314.886
321.554
311.913
302.117
312.29
245.773
294.871
243.204
323.508
292.484
334.475
314.772
0.00180656
0.00172321
0.000339632
0.00193896
0.000356312
0.00208888
0.000419487
0.00211382
0.000450104
0.00045433
0.000427288
0.00057446
0.000548707
0.000703237
0.000719885
0.00065084
0.000648195
0.0007193
0.000778272
0.000830653
0.000867759
0.00073225
0.00341982
0.00335633
0.00401727
0.00369716
0.00379324
0.00402573
0.0038383
0.00451426
0.00540041
0.00505478
0.00545086
0.0062762
0.00633764
0.00690218
0.00598263
0.00635373
0.00600901
0.00620566
0.00676273
0.00650644
0.0150321
0.0148376
0.0148781
0.012078
0.011521
0.0447757
0.0470414
0.0463885
0.0792001
1.43238
1.14279
1.46839
0.231948
1.00999
0.553958
0.840263
0.639166
1.45587
198.93
162.117
216.195
173.784
32.4481
147.464
54.1624
192.054
151.778
177.469
136.534
30.8067
177.167
29.1067
167.063
209.873
234.759
250.195
263.191
193.574
216.062
213.825
223.337
276.572
259.355
263.418
251.274
247.834
262.349
261.679
255.034
254.565
259.71
262.517
258.654
263.792
276.797
262.096
273.205
268.575
285.128
282.767
291.569
283.485
292.338
298.972
290.966
292.613
303.082
302.74
299.93
300.519
309.967
310.929
311.858
313.294
311.297
311.298
308.253
310.926
257.446
311.234
284.405
271.401
323.306
335.604
350.778
339.801
0.000373199
0.000412142
0.000422274
0.00043525
0.000433782
0.000403047
0.000410732
0.000442948
0.000414892
0.000371907
0.000270657
0.000271659
0.000400409
0.000564647
0.000450864
0.000561178
0.000567669
0.000707955
0.000738514
0.000619613
0.00188749
0.00438189
0.0046547
0.0048388
0.00550846
0.00410611
0.00413629
0.00198648
0.00182562
0.00297732
0.00264927
0.00615755
0.00623419
0.00704156
0.00721645
0.00729524
0.00707351
0.00732513
0.00674494
0.00666104
0.00642203
0.0145713
0.0147086
0.0136037
0.00381004
0.00515225
0.00520354
0.00480247
0.00867787
1.55116
1.3694
1.79064
1.84001
1.41427
1.55636
1.44769
1.36797
1.61131
1.48065
2.48068
3.2619
2.12973
11.7482
24.7208
27.1003
28.9544
160.367
23.2594
19.7906
160.327
214.463
173.531
232.359
203.141
149.738
179.817
239.13
244.528
265.098
271.816
227.831
208.523
222.873
217.679
245.531
266.474
242.403
256.276
259.609
263.751
267.644
260.026
273.001
267.14
277.349
270.437
285.752
286.176
282.728
279.645
281.965
287.554
297.342
294.556
294.036
292.913
295.257
294.793
305.41
306.441
301.734
302.764
309.629
311.583
312.054
313.275
317.837
314.998
320.664
315.545
322.325
314.267
279.7
311.388
322.923
330.281
349.13
356.856
0.000264139
0.00024851
0.000315011
0.000362294
0.000415517
0.000462895
0.000485995
0.000459116
0.000465541
0.00047715
0.000417686
0.000425627
0.000517997
0.000357788
0.000275831
0.000266743
0.000377686
0.000470763
0.000403145
0.0028545
0.00391428
0.000800084
0.00403288
0.00142988
0.00119625
0.00169509
0.0178034
0.0238387
0.0195476
0.0188273
0.0317486
0.0107834
0.00938494
0.0076352
0.0083098
0.00860268
0.00776969
0.0066891
0.00699437
0.00637554
0.00650913
0.021627
0.00613179
0.0350705
0.00973939
0.0426247
0.0311496
0.0627781
0.108341
0.0647872
0.127526
0.195731
0.753096
0.254056
0.77084
0.636204
0.719766
0.763574
0.916903
2.09774
1.71921
14.8515
18.6207
21.6008
20.7211
21.6829
196.153
178.512
171.901
128.658
206.41
222.56
246.496
236.625
192.252
156.581
265.4
250.39
240.168
266.814
211.548
228.812
216.958
216.942
238.319
239.224
238.989
243.724
265.162
265.865
279.167
276.288
282.335
279.509
288.894
283.653
275.467
285.237
276.482
280.905
295.664
283.632
296.404
299.252
298.386
296.449
296.869
297.06
298.259
303.881
306.205
302.715
309.439
310.505
314.984
314.293
318.857
319.993
323.572
322.14
326.969
323.596
314.652
305.673
328.882
322.156
334.621
345.479
0.000124407
0.00021809
0.000215469
0.000332869
0.000339069
0.000339797
0.000378837
0.000388304
0.000450441
0.000500939
0.000512924
0.000535395
0.000550551
0.000513299
0.000463676
0.000444113
0.000516794
0.000565648
0.000496705
0.000383433
0.000478533
0.000579077
0.00076175
0.000691396
0.000947451
0.00228994
0.00525933
0.00308918
0.0238417
0.0192442
0.0352294
0.034734
0.0299873
0.0175373
0.0110546
0.0112061
0.0121546
0.0138951
0.0102082
0.0208985
0.0239849
0.0277215
0.0318433
0.0359852
0.0382719
0.0339015
0.0477729
0.0290245
0.0435934
0.17555
0.225912
0.298155
0.354155
0.794987
0.618038
1.9628
0.754949
8.42286
11.5532
13.697
15.7524
14.2348
16.5308
12.0976
170.359
27.0662
169.067
202.254
26.7228
163.987
182.77
192.946
29.4677
223.549
181.657
131.154
267.697
251.884
226.498
215.786
230.681
207.747
227.971
222.531
255.848
246.509
242.008
246.059
286.054
276.161
289.195
289.767
279.269
287.944
272.586
287.185
280.16
273.869
288.153
280.794
291.159
297.955
289.579
292.978
310.102
301.293
298.212
298.683
290.208
296.787
314.149
310.088
314.014
312.242
320.294
318.89
320.361
321.572
320.213
324.34
322.276
325.1
318.552
313.32
326.568
324.44
325.221
326.055
0.000136984
0.000268131
0.000241401
0.000132299
5.02136e-05
7.40145e-05
8.4047e-05
5.97005e-05
0.0001071
0.000349285
0.000375401
0.000488239
0.000506763
0.000505803
0.000534959
0.000524535
0.000507541
0.000496698
0.000369666
0.000447854
0.000522709
0.000413558
0.000321464
0.000499901
0.000462347
0.000591158
0.000604931
0.000548491
0.00692591
0.0229933
0.0312628
0.0338554
0.0128406
0.0292453
0.0111974
0.0092465
0.0273289
0.0157012
0.0185834
0.0178271
0.0210665
0.0129302
0.0242772
0.0143376
0.02471
0.0153743
0.0248069
0.089604
0.123356
0.137046
0.167401
0.16419
0.108165
0
1.76206
6.88368
6.95235
4.68766
7.77141
6.35803
6.78081
6.6003
7.82128
0
0.80505
14.7536
12.9193
108.626
127.982
22.4527
14.4287
20.2332
26.0244
29.5437
241.054
215.164
268.395
274.881
224.568
228.186
235.479
230.632
242.808
226.925
254.205
253.737
248.168
239.125
276.736
282.927
286.986
283.786
283.006
275.937
258.161
268.893
283.817
282.935
292.965
290.04
267.445
283.527
304.21
292.166
319.082
315.455
298.715
299.221
303.075
295.678
308.904
317.019
318.436
316.047
319.606
320.727
319.935
320.011
317.973
319.587
314.421
320.551
328.222
322.56
322.751
325.624
322.53
322.717
0.000829654
0.00265742
0.0045016
0.00311434
0.000963616
0.000153575
8.60868e-05
0.000127999
0.000211366
0.000641591
0.000439329
0.000588651
0
0
0.000504656
0.000363222
0.000210764
0.000320022
0.000182141
0.000283926
0.000421716
0.000455604
0.000462876
0.000560074
0.000493139
0.00071437
0.000946769
0.000924465
0.0014308
0.00664491
0.00291555
0.0260278
0.00881879
0.00867695
0.00741075
0.00708217
0.0172785
0.0206411
0.0153744
0.00750082
0.00881179
0.00691829
0.0126026
0.00911378
0.0114222
0.0107315
0.0553242
0.0511806
0.0103593
0.00402326
0.00504874
0.00361618
0.000455954
0.000336573
0.0245318
0.00271814
0.0026829
0.000314901
0.00209304
0.000338198
0.0188592
0.0190974
0.0281595
0.038627
0.298815
0.775964
5.09327
11.0697
151.051
160.902
173.607
165.123
161.582
26.6665
118.606
237.776
254.592
258.307
273.012
234.112
244.714
244.79
253.745
251.111
246.578
254.016
177.371
233.06
246.949
258.727
298.768
282.453
277.159
276.739
285.986
259.53
283.685
286.507
291.04
294.016
293.81
276.759
307.466
313.155
306.686
317.234
295.874
294.632
308.553
302.646
312.301
307.652
313.436
318.536
317.878
318.225
323.575
320.897
323.377
320.687
320.147
318.896
330.465
333.535
329.49
326.558
327.592
328.257
0.00106341
0.00220408
0.00545842
0.00312725
0.00248944
0.00140886
0.00180606
0.00187287
0.00204389
0.00551826
0.00553191
0.00475046
0.00540614
0.00353728
0.0020442
0.00120528
0.00026244
0.000224385
0.000192638
0.00020846
0.000394442
0.000356518
0.000488538
0.000436861
0.000742222
0.000615477
0.000815648
0.000734295
0.000967264
0.00118471
0.00121452
0.00168991
0.00370479
0.00518868
0.00404818
0.0044856
0.00497857
0.00880635
0.00534094
0.00641432
0.00635298
0.00610671
0.00575172
0.00503311
0.0050587
0.00473997
0.00450105
0.00464721
0.00436376
0.00441731
0.00424289
0.00347466
0.00159874
0.000461804
0.000416365
0.000428297
0.0003797
0.00028225
0.00195947
0.00207743
0.000257799
0.00195174
0.0397381
0.0421258
0.0704284
0.479108
171.444
33.9927
139.239
192.402
192.402
203.339
192.831
194.585
148.814
157.087
251.341
269.258
292.286
287.809
252.167
251.469
245.185
256.038
246.616
247.721
176.824
185.935
284.267
268.443
314.406
313.751
269.83
284.046
289.653
291.29
290.552
283.343
290.15
291.273
299.179
296.472
305.481
304.072
297.222
303.429
308.526
301.737
316.065
314.06
314.443
314.756
308.285
311.886
319.531
319.26
323.201
324.356
328.64
324.821
326.666
322.377
322.083
328.437
329.772
329.487
334.452
329.103
0.000876059
0.00121575
0.00128504
0.00159781
0.00156569
0.0014014
0.0015113
0.00159235
0.00142341
0.00125555
0.00149077
0.00141391
0.00163296