# vtk DataFile Version 3.0
vtk output
ASCII
DATASET POLYDATA
POINTS 24578 float
-151.53 81.83 75.23
-146.76 79.98 77.9
-147.26 82.51 76.57
-151.22 79.35 76.36
-146.3 77.32 78.47
-150.76 76.75 77.01
-146.01 74.82 79.56
-150.4 74.19 77.98
-145.43 72.07 79.86
-149.95 71.56 78.66
-145.02 69.6 80.58
-149.55 69.11 79.46
-144.64 67.21 81.53
-149.14 66.64 80.2
-144.27 64.77 82.34
-148.68 64.12 80.8
-144.06 62.18 83.1
-148.26 61.63 81.51
-143.83 59.57 83.96
-148.2 59.14 82.73
-143.54 56.98 84.63
-148.02 56.58 83.6
-143.3 54.28 84.95
-147.52 53.77 83.62
-142.71 51.53 84.98
-147.03 50.98 83.68
-142.34 49.05 85.71
-146.66 48.52 84.06
-142.24 46.57 86.6
-146.26 46.05 84.34
-145.97 43.63 84.94
-141.82 44.09 87.11
-141.56 41.44 87.04
-145.67 41.21 85.5
-140.98 38.76 87.5
-145.29 38.66 85.7
-140.75 36.16 87.85
-144.89 36.1 85.85
-144.62 33.53 86.3
-140.46 33.57 88.45
-140.13 30.94 88.56
-144.22 30.94 86.41
-143.81 28.2 86.49
-139.84 28.2 88.9
-143.44 25.45 86.68
-139.6 25.51 89.44
-143.18 22.67 87.12
-139.22 22.78 89.44
-142.9 19.88 87.51
-138.79 20.04 89.71
-142.6 17.15 87.83
-138.39 17.32 89.75
-137.91 14.61 89.73
-142.25 14.42 88.03
-141.99 11.68 88.46
-137.6 11.89 89.94
-141.61 8.95 88.57
-137.22 9.16 90.05
-141.13 6.27 88.48
-136.86 6.45 90.3
-140.68 3.58 88.47
-136.37 3.76 90.16
-140.25 0.89 88.51
-135.88 1.07 90.03
-139.71 -1.79 88.26
-135.64 -1.76 90.02
-135.64 -4.55 89.75
-140 -4.44 88.09
-135.69 -7.09 89
-140.34 -7.12 88.03
-135.79 -9.62 88.23
-140.37 -9.69 87.25
-135.84 -12.19 87.54
-140.43 -12.27 86.54
-135.99 -14.75 87
-140.5 -14.79 85.8
-136.21 -17.35 86.64
-140.62 -17.33 85.19
-136.42 -19.93 86.21
-140.85 -19.94 84.82
-136.49 -22.42 85.34
-140.79 -22.34 83.7
-136.45 -24.91 84.43
-140.78 -24.79 82.73
-136.55 -27.44 83.74
-140.84 -27.3 81.99
-136.57 -29.97 82.98
-140.97 -29.86 81.42
-136.73 -32.54 82.43
-141.02 -32.36 80.63
-136.76 -35.12 81.64
-141.09 -34.97 79.94
-141.32 -37.69 79.69
-136.83 -37.72 80.96
-141.45 -40.33 79.13
-136.9 -40.34 80.32
-137.11 -43 79.41
-141.48 -42.91 78.35
-141.57 -45.38 77.61
-137.04 -45.54 78.64
-141.59 -47.8 76.7
-137.03 -47.91 77.56
-141.86 -50.43 76.49
-137.15 -50.39 76.9
-141.9 -52.84 75.63
-137.27 -52.84 76.11
-141.91 -55.11 74.4
-137.53 -55.19 75.26
-137.48 -57.49 74.21
-141.9 -57.35 73.07
-142.03 -59.74 72.14
-137.7 -59.92 73.43
-142.25 -62.22 71.44
-137.97 -62.48 72.92
-142.57 -64.67 70.67
-138.15 -65.14 72.4
-142.87 -67.1 69.86
-138.34 -67.41 71.12
-143.16 -69.56 69.09
-138.58 -69.8 70.17
-143.42 -71.97 68.22
-138.72 -72 68.84
-143.42 -74.03 66.78
-138.71 -74.17 67.59
-143.52 -76.26 65.69
-138.9 -76.5 66.65
-143.64 -78.59 64.8
-139.03 -78.91 65.88
-143.64 -80.66 63.43
-139.36 -81.09 64.3
-142.41 80.53 78.87
-142.88 83.09 77.59
-141.83 77.87 79.86
-141.49 75.33 80.8
-140.97 72.61 81.19
-140.47 70.13 81.77
-140.01 67.69 82.47
-139.94 65.21 83.59
-139.84 62.72 84.64
-139.44 60.04 85.13
-139.12 57.42 85.86
-138.88 54.8 86.42
-138.56 52.14 86.78
-138.19 49.56 87.25
-137.83 46.99 87.76
-137.58 44.31 88.01
-137.31 41.63 88.23
-137.03 38.95 89.21
-136.57 36.22 89.77
-136.22 33.57 90.06
-135.88 30.91 90.36
-135.74 28.24 91.1
-135.47 25.56 91.56
-134.94 22.88 91.41
-134.47 20.19 91.43
-134.08 17.49 91.57
-133.61 14.8 91.52
-133.09 12.1 91.2
-132.71 9.37 91.23
-132.3 6.67 91.32
-131.94 3.96 91.53
-131.76 1.11 91.67
-131.5 -1.71 91.62
-131.31 -4.41 90.89
-131.1 -7.09 90.13
-131.35 -9.7 89.79
-131.55 -12.29 89.33
-131.63 -14.81 88.62
-131.74 -17.34 87.96
-131.85 -19.85 87.19
-132.06 -22.42 86.66
-132.19 -25.02 86.17
-132.25 -27.57 85.48
-132.26 -30.09 84.65
-132.44 -32.72 84.26
-132.56 -35.36 83.72
-132.63 -37.97 83.04
-132.75 -40.58 81.94
-132.83 -43.16 80.72
-132.77 -45.71 79.94
-132.75 -48.3 79.25
-132.77 -50.64 78.12
-132.8 -52.99 77
-132.95 -55.32 76.2
-133.13 -57.69 75.53
-133.33 -60.11 74.69
-133.5 -62.48 73.72
-133.64 -65.09 73
-133.72 -67.59 72.04
-133.86 -69.81 70.74
-134.01 -72.03 69.43
-134.18 -74.44 68.63
-134.35 -76.86 67.84
-134.77 -79.33 66.76
-135.07 -81.54 65.2
-138.04 81.11 79.93
-138.51 83.66 78.64
-137.48 78.45 80.95
-136.81 75.7 81.58
-136.53 73.2 82.68
-136.2 70.85 83.66
-136.01 68.35 84.53
-135.78 65.76 85.17
-135.49 63.19 85.82
-135.19 60.56 86.38
-134.98 57.99 87.45
-134.76 55.37 88.25
-134.53 52.77 88.88
-134 50.11 89.1
-133.65 47.3 89.03
-133.3 44.56 89.42
-133.29 41.92 90.17
-132.89 39.2 91
-132.5 36.43 91.58
-132.05 33.68 92.21
-131.7 30.98 92.36
-131.44 28.31 92.66
-131.04 25.67 93.02
-130.62 23.02 93.01
-130.15 20.36 93.11
-129.82 17.66 93.35
-129.27 14.97 93.05
-128.74 12.27 92.73
-128.4 9.55 92.87
-127.96 6.85 92.86
-127.84 4 93.22
-127.59 1.17 93.17
-127.27 -1.64 92.97
-127.25 -4.36 92.57
-127.15 -7.08 92.07
-127.17 -9.83 91.83
-127.29 -12.38 91.16
-127.29 -14.86 90.23
-127.44 -17.42 89.6
-127.57 -19.97 88.96
-127.76 -22.53 88.35
-127.82 -25.1 87.72
-127.85 -27.64 86.95
-127.95 -30.27 86.46
-128.2 -32.95 86.24
-128.25 -35.54 85.49
-128.5 -38.26 84.8
-128.59 -40.83 83.55
-128.62 -43.36 82.3
-128.5 -45.86 81.36
-128.57 -48.51 80.64
-128.51 -50.96 79.6
-128.63 -53.39 78.68
-128.82 -55.89 78.24
-129.15 -58.39 77.85
-129.06 -60.46 76.29
-128.99 -62.4 74.44
-128.98 -64.79 73.19
-129.01 -67.15 71.96
-128.97 -69.58 70.84
-129.28 -72.05 69.98
-129.48 -74.55 69.36
-130.01 -77.21 68.65
-130.42 -79.71 67.63
-130.79 -82.03 66.21
-133.82 81.84 81.46
-134.36 84.47 80.38
-133.19 79.09 82.22
-132.49 76.28 82.7
-131.95 73.65 83.71
-131.93 71.29 85
-131.87 68.9 86.17
-131.5 66.27 86.57
-131.13 63.64 86.94
-130.87 61.02 87.58
-130.68 58.45 88.47
-130.46 55.86 89.34
-130.18 53.24 90.02
-129.88 50.44 90.31
-129.64 47.69 90.79
-129.42 44.94 91.36
-129.23 42.2 92.03
-128.71 39.37 92.41
-128.45 36.65 93.48
-128.03 33.86 94.03
-127.47 31.03 94.24
-127.19 28.41 94.71
-126.88 25.78 95.12
-126.32 23.16 94.88
-125.8 20.53 94.74
-125.36 17.84 94.64
-124.86 15.16 94.43
-124.49 12.44 94.52
-124.2 9.71 94.8
-123.95 6.88 94.78
-123.68 4.05 94.73
-123.4 1.23 94.62
-123.18 -1.6 94.69
-123.37 -4.41 94.84
-123.31 -7.12 94.32
-123.16 -9.79 93.63
-122.95 -12.42 92.76
-123.09 -14.99 92.12
-123.27 -17.57 91.56
-123.4 -20.13 90.9
-123.5 -22.66 90.14
-123.53 -25.22 89.42
-123.57 -27.78 88.7
-123.68 -30.42 88.22
-123.74 -33.02 87.62
-123.94 -35.69 86.77
-124.14 -38.36 85.91
-124.27 -40.96 84.88
-124.51 -43.67 84.17
-124.44 -46.18 83.04
-124.36 -48.68 81.9
-124.32 -51.14 80.87
-124.34 -53.66 80.01
-124.65 -56.22 79.72
-124.85 -58.64 79.12
-124.76 -60.62 77.46
-124.57 -62.46 75.52
-124.49 -64.69 73.94
-124.51 -67.1 72.74
-124.57 -69.65 71.8
-124.65 -72.26 70.99
-125.14 -74.86 70.13
-125.57 -77.36 69.04
-126.01 -79.84 67.96
-126.39 -82.16 66.58
-129.58 82.52 82.46
-130.23 85.32 82
-128.9 79.77 83.09
-128.4 77.11 83.84
-127.98 74.41 84.96
-127.56 71.77 85.9
-127.33 69.24 86.57
-127.15 66.76 87.43
-126.86 64.14 88.01
-126.52 61.49 88.81
-126.36 58.96 89.84
-126.14 56.38 90.8
-125.97 53.53 91.15
-125.51 50.64 91.5
-125.42 47.93 92.31
-125.22 45.19 93.14
-125.05 42.45 93.81
-124.64 39.66 94.38
-124.31 36.88 95.2
-123.77 34.05 95.42
-123.26 31.23 95.69
-122.78 28.52 96.11
-122.44 25.87 96.38
-121.98 23.27 96.26
-121.42 20.65 96.06
-121.04 17.96 96.08
-120.68 15.29 96.36
-120.38 12.57 96.56
-120.17 9.75 96.72
-119.91 6.93 96.66
-119.55 4.12 96.37
-119.27 1.3 96.28
-119.07 -1.54 96.32
-119.25 -4.36 96.51
-119.22 -7.1 96.08
-119.04 -9.77 95.31
-119 -12.5 94.8
-118.91 -15.21 94.19
-119.08 -17.79 93.59
-119.2 -20.38 92.98
-119.3 -22.91 92.18
-119.31 -25.47 91.43
-119.31 -28 90.63
-119.33 -30.55 89.87
-119.45 -33.15 88.84
-119.6 -35.8 87.91
-119.83 -38.5 87.17
-120.05 -41.2 86.43
-120.26 -43.87 85.57
-120.32 -46.42 84.63
-120.24 -48.94 83.59
-120.24 -51.46 82.7
-120.29 -53.99 81.83
-120.1 -56.26 80.6
-120.22 -58.48 79.45
-120.33 -60.66 78.2
-120.24 -62.81 76.84
-120.26 -65.2 75.6
-120.18 -67.48 74.2
-120.23 -70.02 73.25
-120.52 -72.67 72.16
-120.81 -75.19 70.96
-121.18 -77.58 69.65
-121.52 -79.9 68.24
-121.92 -82.27 66.97
-125.25 83.17 83.41
-125.88 85.88 82.84
-124.6 80.45 83.94
-124.22 77.72 84.75
-123.94 75.09 85.93
-123.46 72.43 86.81
-122.93 69.71 87.46
-122.73 67.14 88.15
-122.59 64.64 89.06
-122.25 62 89.9
-121.95 59.4 90.9
-121.96 56.7 91.92
-121.73 53.8 92.2
-121.47 50.99 93.04
-121.27 48.22 94.07
-121.07 45.45 94.8
-120.88 42.69 95.58
-120.53 39.9 96.26
-120.06 37.06 96.59
-119.52 34.23 96.77
-119.19 31.45 97.53
-118.64 28.71 97.7
-118.07 25.97 97.81
-117.65 23.36 97.86
-117.2 20.75 97.82
-116.76 18.09 97.81
-116.45 15.42 98.16
-116.25 12.62 98.27
-115.94 9.82 98.09
-115.72 7.01 98.16
-115.43 4.19 98.08
-115.24 1.34 98.13
-115.02 -1.5 98.11
-115.03 -4.27 97.86
-115.05 -7.04 97.62
-115.01 -9.78 97.12
-114.91 -12.5 96.46
-114.83 -15.21 95.87
-114.79 -17.94 95.36
-114.95 -20.55 94.79
-115.09 -23.14 94.17
-115.09 -25.69 93.41
-115.09 -28.25 92.66
-115.19 -30.82 91.55
-115.34 -33.43 90.58
-115.56 -36.16 89.86
-115.65 -38.76 88.81
-115.73 -41.32 87.6
-115.89 -43.96 86.62
-115.94 -46.5 85.75
-115.97 -49.02 84.82
-116.06 -51.62 84.1
-116.16 -54.22 83.41
-116 -56.46 81.98
-115.78 -58.59 80.34
-115.73 -60.7 78.9
-115.82 -63.01 77.89
-115.91 -65.56 77.02
-115.85 -67.86 75.66
-116.07 -70.39 74.35
-116.45 -73.24 73.66
-116.73 -75.78 72.45
-116.87 -78.01 70.66
-117.13 -80.1 68.85
-117.46 -82.37 67.36
-120.93 83.58 83.84
-121.35 86.18 83.25
-120.43 80.92 84.76
-120.24 78.29 85.68
-119.85 75.73 86.84
-119.39 73.08 87.68
-118.97 70.39 88.56
-118.52 67.71 89.38
-118.27 65.1 89.93
-117.89 62.43 90.71
-117.77 59.68 91.68
-117.62 56.89 92.64
-117.53 54.11 93.38
-117.25 51.28 94.27
-116.99 48.44 95.07
-116.61 45.56 95.63
-116.37 42.76 96.18
-116.01 39.98 96.85
-115.62 37.17 97.41
-115.23 34.39 98.02
-114.97 31.62 98.96
-114.53 28.91 99.33
-113.9 26.15 99.26
-113.4 23.47 99.53
-113.04 20.85 99.72
-112.61 18.2 99.71
-112.34 15.45 99.77
-112.11 12.66 99.75
-111.7 9.9 99.43
-111.54 7.08 99.65
-111.31 4.26 99.65
-111.1 1.42 99.6
-110.91 -1.42 99.76
-110.84 -4.17 99.3
-110.76 -6.92 98.71
-110.8 -9.71 98.47
-110.76 -12.46 97.96
-110.67 -15.19 97.39
-110.65 -17.93 96.92
-110.56 -20.62 96.27
-110.66 -23.19 95.59
[...]
CELL_DATA 49152
SCALARS Temperature float 1
LOOKUP_TABLE default
234.79
248.204
276.958
268.521
243.239
262.436
290.526
248.499
243.447
230.115
216.87
253.134
248.335
276.12
266.661
277.095
269.172
204.329
249.78
211.328
251.667
288.421
289.255
284.152
256.168
288.907
264.998
320.212
310.214
308.925
321.391
277.689
286.845
300.86
293.176
313.113
301.178
301.339
317.595
319.869
320.788
321.81
326.974
327.698
330.571
328.771
318.221
317.029
313.897
311.802
314.442
296.277
287.111
284.668
289.042
289.049
296.896
300.705
309.282
307.879
302.157
300.129
304.226
307.995
312.246
298.586
319.284
259.083
292.218
293.01
290.131
291.126
284.841
301.203
286.976
307.077
300.587
295.703
312.18
328.481
323.615
326.623
318.922
322.605
323.261
310.264
309.268
325.528
325.187
319.176
305.128
302.289
297.758
297.136
303.321
299.481
298.785
298.525
303.569
302.364
263.974
261.272
271.441
272.315
291.56
294.792
303.267
320.218
308.524
309.334
306.554
307.401
314.788
315.053
322.894
321.705
305.79
305.307
302.481
299.257
304.777
306.79
301.132
302.171
300.875
301.36
321.628
321.318
192.151
175.688
215.013
267.748
247.031
220.357
266.032
276.646
263.249
242.514
244.294
189.828
160.064
243.686
223.16
269.213
282.993
233.746
242.996
248.827
254.318
279.645
279.147
310.174
296.666
274.212
282.529
225.026
265.346
232.579
251.455
283.008
263.716
273.474
296.303
296.966
291.728
290.163
296.93
297.811
295.793
297.225
305.904
305.618
325.967
313.472
306.528
304.309
299.686
306.696
310.047
308.318
316.475
272.112
279.761
272.172
265.68
263.122
273.954
279.356
292.907
297.136
302.445
301.968
319.24
284.009
301.346
298.836
282.682
315.303
305.38
322.016
322.428
311.208
314.907
292.594
306.822
279.302
283.366
310.169
298.209
327
320.897
320.354
324.536
320.643
308.952
318.989
318.772
333.435
330.613
330.796
337.961
318.178
330.486
311.586
311.152
311.144
319.895
322.326
320.786
318.757
307.807
306.446
296.272
296.788
305.851
308.017
310.122
309.808
298.012
294.604
275.794
273.401
295.476
299.147
298.858
296
297.201
297.582
297.64
301.319
305.883
306.417
306.096
305.239
321.53
321.757
195.64
198.802
223.368
229.265
250.816
149.105
78.0424
281.779
250.148
296.72
282.828
304.079
303.108
253.773
278.364
216.708
253.584
265.815
231.806
277.352
273.111
293.568
291.076
312.232
317.769
297.612
311.439
265.401
271.298
280.885
253.829
309.723
285.298
282.389
293.137
293.607
302.26
304.078
312.253
311.616
287.823
285.269
278.56
277.533
292.493
305.323
297.079
302.744
298.088
299.146
316.509
298.589
306.949
306.838
295.088
296.258
298.574
297.51
289.161
291.469
299.407
297.243
297.364
295.487
299.28
322.639
316.863
332.617
319.389
319.442
328.787
315.978
329.308
316.367
313.484
316.288
315.465
323.277
318.307
313.372
317.419
307.463
316.26
310.985
304.573
327.02
313.721
313.752
329.38
316.788
318.68
323.479
334.859
327.372
331.404
328.454
321.101
319.462
312.05
312.186
322.355
327.811
321.451
334.708
326.833
326.241
332.996
331.47
359.687
323.724
344.652
291.887
281.026
270.629
257.612
252.07
257.394
262.057
272.965
277.899
276.345
277.879
285.037
286.118
301.249
301.561
319.397
320.861
279.737
254.242
278.436
246.723
271.69
253.889
231.023
187.463
120.643
239.179
219.877
270.726
291.667
264.955
278.138
242.901
243.535
255.528
234.269
202.047
219.376
232.762
241.064
245.397
264.335
277.366
262.833
311.413
291.776
308.858
292.32
290.166
287.844
281.405
270.781
277.545
297.12
296.402
307.71
307.475
300.201
300.782
306.379
306.712
327.148
310.644
315.168
297.994
303.622
273.038
291.903
299.533
284.964
317.57
303.456
304.489
314.346
314.948
302.501
298.118
297.869
297.188
300.536
303.575
295.403
333.074
335.778
335.954
339.928
314.12
329.673
314.429
313.425
331.761
321.455
325.837
326.61
325.796
328.822
319.113
323.322
317.883
320.369
323.471
315
315.988
306.412
304.368
309.367
307.557
308.683
295.996
307.381
320.192
305.652
338.499
337.574
330.876
334.319
307.41
317.389
318.521
314.634
315.148
300.809
301.242
304.213
303.637
333.424
327.264
334.881
328
322.012
300.348
299.646
300.573
298.211
301.325
297.944
298.162
291.75
290.77
284.18
280.912
278.279
277.745
291.636
292.05
294.022
221.605
247.419
226.68
224.19
268.497
240.869
256.435
257.401
91.6779
54.6548
73.7057
74.7684
237.76
224.784
257.948
234.725
252.425
225.384
248.906
245.834
257.02
279.555
242.986
265.004
265.934
231.826
278.327
274.27
277.143
283.261
283.299
299.26
301.64
281.736
278.144
289.823
284.752
282.565
289.32
274.816
273.227
270.68
269.272
287.718
299.512
298.358
292.598
285.224
296.436
300.879
305.729
311.176
312.124
309.771
309.088
314.483
314.109
320.932
303.95
305.734
305.944
300.473
300.267
291.417
291.615
312.989
318.97
325.417
320.891
315.696
337.514
331.498
329.061
327.662
325.539
327.276
329.705
333.125
331.423
331.956
330.211
332.328
327.505
328.619
311.081
324.078
301.176
309.288
303.052
299.57
307.941
304.356
323.711
318.744
309.208
317.56
329.897
328.256
333.091
327.597
335.773
331.761
331.586
314.202
307.191
283.867
279.243
283.254
315.529
307.489
341.532
325.445
343.774
340.923
329.031
322.151
321.512
317.47
315.711
308.551
305.654
301.897
299.944
291.481
287.915
286.821
288.184
230.358
248.618
244.971
232.245
217.194
229.642
193.023
220.06
233.806
220.047
239.335
216.909
215.582
153.335
140.184
244.53
230.078
236.743
222.092
202.831
205.322
221.684
265.3
254.893
226.64
291.727
268.236
269.911
277.677
276.455
278.131
279.061
290.812
292.14
286.773
279.897
286.421
282.9
280.873
288.212
301.369
298.126
292.033
289.288
289.847
304.07
301.416
314.954
306.663
306.128
295.92
296.579
301.275
300.837
310.735
282.561
291.005
292.617
298.291
314.085
308.003
309.478
309.873
309.284
313.037
275.635
293.313
307.81
309.715
327.798
324.75
315.574
317.786
319.075
316.246
318.017
317.192
320.459
320.488
330.759
330.811
330.033
330.121
332.731
337.133
323.887
326.766
330.275
321.99
334.243
337.271
318.924
330.771
301.133
308.192
299.368
301.912
305.859
306.116
314.211
310.255
312.11
316.6
318.086
336.505
328.566
335.829
307.225
315.779
301.738
305.736
309.847
314.422
318.151
330.857
333.662
322.04
319.333
313.099
316.182
330.522
330.395
343.383
317.062
330.08
303.536
298.907
296.17
71.7665
154.771
65.4692
233.727
193.124
231.864
204.219
198.887
226.757
221.136
220.714
258.869
250.408
253.115
260.881
190.552
213.346
195.252
178.624
160.679
173.829
79.6679
179.469
268.762
238.481
243.975
230.201
222.236
241.155
195.406
215.798
102.63
154.711
154.702
178.051
236.006
246.742
256.404
246.882
250.596
289.331
292.454
302.364
299.578
293.816
295.9
305.378
307.292
314.093
314.079
301.939
299.61
297.039
295.695
307.068
294.258
284.497
286.393
298.07
299.137
297.042
295.902
295.071
297.065
313.447
297.965
308.38
280.339
279.995
302.162
302.399
313.257
311
312.217
308.503
311.445
315.507
306.617
310.507
305.758
311.273
310.668
307.66
313.928
315.483
328.569
324.816
325.493
317.85
318.987
331.955
322.412
330.464
318.69
313.589
311.108
310.302
309.665
312.821
309.602
302.879
302.095
298.747
297.31
309.197
326.736
328.728
335.585
327.749
339.227
332.264
324.438
318.963
315.274
319.672
319.743
319.235
307.599
286.175
284.078
298.883
302.803
330.484
321.351
324.329
320.801
312.273
309.692
70.7707
206.412
172.382
162.304
149.583
146.752
66.0749
66.1011
81.3904
178.359
104.167
220.275
213.312
241.22
256.308
240.414
217.025
246.275
245.268
205.279
218.749
188.253
205.695
214.586
204.62
209.306
231.75
188.642
226.78
199.254
186.003
209.107
198.017
207.992
239.376
242.429
247.29
253.708
252.473
242.993
251.033
251.503
270.453
284.023
268.716
269.175
271.882
274.821
292.745
295.499
301.824
301.57
307.074
296.669
301.191
316.236
298.032
296.432
300.39
299.145
296.505
295.789
285.98
280.134
279.595
294.928
292.852
306.789
298.83
290.756
297.059
303.905
298.074
316.053
304.937
322.298
326.199
328.1
336.679
313.379
318.08
313.813
314.348
305.1
308.851
310.705
313.176
311.732
308.417
297.084
311.256
315.579
314.449
328.058
317.77
319.82
319.239
316.784
320.579
317.968
316.308
307.304
307.953
305.878
305.655
320.05
321.143
339.162
330.529
338.955
341.762
328.322
333.091
320.865
324.118
326.249
333.095
314.213
292.952
282.117
259.749
246.544
268.68
281.022
296.789
308.25
319.555
324.583
140.926
259.567
257.614
259.925
268.074
232.962
223.245
224.268
249.294
199.412
75.1594
79.7708
87.5066
88.1087
89.6253
256.768
212.732
246.216
265.266
240.796
248.53
217.577
225.094
215.818
206.737
213.882
224.693
250.392
235.166
286.663
273.392
283.71
272.255
270.862
278.183
278.566
268.434
267.293
283.11
280.877
280.347
284.417
306.248
310.293
312.851
306.562
285.75
280.425
271.853
272.659
284.128
286.239
300.792
301.18
302.443
303.098
295.992
295.343
301.517
304.313
315.264
313.756
313.102
310.895
305.447
300.744
305.168
303.627
302.233
299.862
302.522
302.638
298.441
301.302
300.003
293.316
297.644
317.986
320.776
339.329
336.382
330.304
338.2
315.143
316.099
312.584
313.947
317.995
316.96
310.631
318.464
319.65
315.486
326.66
326.661
314.124
314.275
314.588
315.618
319.798
314.113
320.605
324.89
319.383
329.009
304.435
311.756
315.08
320.089
319.649
329.452
319.708
317.139
322.665
321.824
318.338
326.123
328.227
319.023
319.268
321.205
320.639
318.296
317.867
313.009
313.373
313.488
312.522
43.5463
45.865
59.5406
60.7118
64.3499
194.919
63.4064
62.965
65.4109
229.342
214.432
264.467
247.059
65.2514
242.395
189.176
216.462
210.479
242.844
260.233
288.94
294.55
309.207
307.113
294.834
288.045
269.052
270.108
267.674
267.486
274.715
266.736
262.513
262.645
269.191
270.492
266.257
259.802
267.711
272.637
270.534
275.757
299.682
297.958
313.05
306.941
296.87
296.884
288.218
289.665
294.717
292.036
296.7
296.22
293.23
294.232
292.977
293.259
286.771
287.731
309.842
308.969
311.585
311.627
306.308
306.039
310.53
305.463
306.862
298.76
295.486
306.591
302.365
302.792
311.081
290.489
307.874
262.177
266.067
298.565
289.493
323.713
326.202
334.294
328.881
321.93
321.616
321.898
324.313
320.013
320.375
330.849
328.359
326.154
327.765
334.085
330.19
330.15
331.066
330.213
333.365
317.712
324.056
325.443
329.677
336.594
326.676
324.079
327.071
318.732
321.764
340.162
336.777
331.266
334.375
328.652
330.46
339.486
336.249
323.795
327.888
331.009
342.869
343.521
361.608
325.641
339.186
304.327
58.3337
60.014
63.4462
66.6861
68.8862
67.0875
66.1716
214.504
173.213
212.661
214.577
252.879
250.567
263.781
273.769
271.73
273.136
275.993
268.418
271.645
282.195
280.23
299.962
301.275
311.27
313.715
312.216
275.656
283.281
261.258
262.704
276.756
269.955
264.423
249.742
249.251
260.143
260.823
257.659
256.908
232.023
218.393
243.081
243.779
247.278
303.523
289.79
295.684
298.297
295.485
300.878
297.523
295.793
295.183
286.62
285.683
279.778
279.412
264.797
262.144
285.776
287.139
293.65
295.59
290.376
299.808
297.969
312.413
309.593
314.248
312.092
302.857
308.315
296.162
299.591
312.524
316.065
324.903
327.439
289.341
291.963
290.716
292.271
329.233
325.9
328.591
326.308
324.291
326.976
326.531
325.249
324.951
325.938
327.87
327.108
330.556
333.192
322.975
325.305
321.873
325.709
323.733
326.064
318.835
321.291
327.558
325.343
326.977
330.136
329.724
328.851
329.548
332.521
333.729
334.023
335.851
335.223
335.211
334.209
337.65
321.932
317.945
307.832
308.82
327.462
347.901
352.57
331.52
33.5583
15.6518
36.8539
234.585
243.567
49.158
53.3041
201.269
241.252
121.943
154.223
184.525
106.352
185.746
249.725
255.197
258.619
267.379
266.946
262.934
273.245
261.834
257.426
259.956
281.429
291.295
319.186
323.326
335.879
334.197
340.33
291.426
301.12
298.897
284.039
277.432
268.377
267.873
265.416
263.478
259.049
251.147
251.349
252.832
259.112
264.478
260.534
258.576
268.746
261.192
255.305
275.442
274.938
277.747
277.684
277.708
272.688
272.399
264.987
262.663
275.448
279.182
291.452
294.146
291.864
301.326
306.681
299.066
298.944
306.848
311.748
299.2
306.355
291.875
286.673
294.219
302.784
306.358
310.861
316.486
307.773
298.043
300.086
297.263
302.324
317.992
313.252
322.143
322.809
325.694
326.511
320.982
323.791
319.128
321.501
315.662
319.453
319.837
318.954
316.236
316.834
321.848
324.423
321.707
321.555
320.358
321.102
320.537
324.022
325.379
323.813
325.149
327.441
330.029
330.185
331.802
333.31
329.404
331.363
323.964
326.687
313.776
299.709
295.709
301.404
315.958
324.506
341.501
10.4488
16.5823
143.42
182.279
238.444
253.093
253.018
247.748
263.122
263.583
247.961
247.878
177.374
135.43
187.299
187.562
110.974
154.061
209.314
168.416
208.865
224.557
233.369
256.769
276.702
284.926
316.868
316.335
352.427
340.629
356.299
317.334
308.684
302.6
290.445
291.619
287.723
283.998
276.147
273.917
278.185
276.662
270.868
265.992
247.196
238.734
216.557
202.92
223.544
236.853
254.671
261.368
275.024
278.845
286.321
288.446
289.511
289.72
290.842
289.805
286.276
286.693
291.695
293.028
298.574
291.014
303.569
298.301
297.737
290.387
296.801
304.307
308.88
302.216
295.447
284.637
302.051
288.862
286.46
308.492
297.695
306.749
304.879
304.867
308.357
308.925
308.878
311.92
316.324
316.89
320.129
317.547
319.097
316.448
318.962
313.721
311.511
320.295
318.067
321.788
325.538
314.211
317.7
320.936
320.67
318.237
318.372
318.615
319.009
326.194
326.931
322.437
324.611
326.022
327.47
326.508
328.016
329.628
330.794
328.563
330.288
324.596
321.038
306.338
316.526
303.326
309.576
332.52
5.44385
11.8516
13.9613
21.2343
181.877
184.887
226.243
229.909
254.229
263.061
269.911
273.335
268.07
264.4
266.913
265.534
227.582
166.648
79.7223
84.3226
119.61
199.317
183.154
180.102
79.1261
84.1735
220.384
216.103
298.627
286.602
314.041
314.073
301.093
267.022
243.888
239.414
240.573
239.026
232.235
227.65
229.051
235.71
239.428
245.81
242.621
245.785
255.016
261.874
267.124
275.157
294.235
298.17
312.549
311.534
311.223
306.446
296.297
297.086
302.686
301.98
295.809
294.297
289.239
288.317
297.998
283.051
288.405
298.851
291.72
301.284
302.86
306.03
300.5
327.833
323.668
315.775
329.799
319.192
314.886
309.766
311.883
300.477
303.444
300.368
306.82
299.537
298.565
301.584
311.611
301.154
305.049
305.698
302.399
311.679
307.282
321.208
319.39
314.017
317.773
310.891
313.808
321.385
318.888
322.835
327.951
316.162
315.127
315.763
312.915
321.061
326.679
321.03
322.365
319.815
322.657
320.485
321.01
322.972
322.467
329.407
328.683
333.24
331.015
322.757
327.922
324.196
324.507
325.94
5.38536
8.56986
12.8437
3.78234
14.9948
3.42789
33.0508
6.60466
8.68835
100.841
222.97
235.987
263.37
263.569
269.358
257.932
261.134
281.498
253.572
255.203
236.248
191.54
60.3638
27.8989
73.5441
55.8556
35.3858
41.0991
55.2824
191.792
245.816
273.704
183.929
286.098
253.78
253.984
279.35
218.985
220.846
217.468
211.555
218.781
239.195
247.818
257.868
263.201
268.224
269.932
256.282
256.664
264.672
264.95
288.548
287.025
295.405
297.374
288.063
286.03
290.166
289.753
287.523
287.538
285.48
284.621
288.069
297.737
288.693
305.458
305.954
298.446
301.931
306.823
299.605
306.397
319.183
305.777
315.748
321.185
311.62
313.444
314.544
311.853
313.94
304.394
309.651
309.296
308.142
301.744
310.505
316.459
317.539
314.332
314.165
307.18
302.568
311.708
315.587
314.772
317.577
314.377
307.695
324.387
330.166
315.343
324.032
318.477
312.76
313.481
314.742
304.463
309.446
321.826
322.335
318.691
319.991
321.824
321.526
321.653
320.887
323.595
321.695
331.42
334.048
324.434
324.47
329.33
328.12
328.41
4.24296
0.590736
0.195779
0.317098
0.710358
0.561756
0.907484
0.805057
4.61017
3.63394
2.72492
3.98521
0
0
17.5055
17.9493
10.1765
144
34.5203
21.464
28.4381
28.6929
18.4265
28.5464
31.062
38.4863
52.3402
54.6647
68.4311
72.6968
72.3489
210.414
83.3821
77.9518
126.52
145.409
222.8
246.115
223.765
233.039
235.811
242.705
255.326
257.213
258.088
257.298
256.047
254.522
231.935
220.866
200.394
190.579
232.763
239.863
260.236
262.59
259.374
257.381
260.457
265.317
271.683
271.792
272.983
272.966
267.418
288.949
279.955
287.945
295.84
297.767
298.767
296.693
296.456
284.025
285.854
321.955
324.81
327.211
330.133
303.686
305.39
305.431
307.31
305.269
304.324
309.94
298.401
321.551
323.794
331.069
339.026
324.305
323
322.644
324.81
301.286
307.653
310.744
312.206
315.932
315.927
294.328
305.504
314.347
312.041
327.434
320.825
319.31
323.546
315.49
318.717
311.809
313.988
322.135
321.889
322.463
324.453
319.791
320.756
315.893
315.672
313.45
318.191
324.118
322.55
317.028
317.436
318.72
1.75943
0.320132
0.285061
0.312071
5.41884
5.77917
7.98394
8.04683
8.72216
8.90923
9.33463
8.80945
10.6341
7.99668
9.4277
12.6866
3.11547
10.1353
10.5499
13.5447
25.3708
24.2464
30.3047
26.7089
40.6797
39.5198
46.9887
48.5455
52.9891
55.988
55.0768
55.0093
51.8061
58.752
57.6207
60.7159
61.7299
245.069
212.394
223.55
231.228
232.373
243.243
241.485
240.647
240.423
242.515
243.934
246.678
247.393
247.831
246.064
254.479
249.531
252.453
252.68
253.864
257.59
258.547
260.278
270.312
272.976
279.915
280.145
281.893
265.723
277.872
249.376
257.15
274.266
274.267
279.407
277.742
278.54
273.546
275.46
291.371
306.725
313.449
308.501
298.088
297.506
295.842
304.561
302.261
303.115
291.137
294.193
314.598
299.063
314.705
313.799
299.026
313.197
314.835
316.63
316.406
308.205
310.476
311.822
314.559
311.12
314.39
312.46
309.924
318.08
319.894
310.641
316.104
313.053
313.212
313.716
311.101
316.775
319.865
319.416
321.028
323.003
324.753
318.001
318.796
311.146
311.007
322.459
323.017
322.5
324.616
314.249
0.690893
0.293604
0.176893
0.484675
0.783801
0.354418
0.635058
0.602009
0.526405
0.456443
0.438963
0.46051
6.39541
0.493012
7.94649
0.446591
1.10107
2.59047
12.4264
15.9621
37.1637
19.2251
41.3963
35.5715
39.6905
40.4468
38.4044
38.3086
37.1201
33.6436
34.0729
32.5986
39.675
40.4712
47.1629
46.3255
50.6319
219.26
229.988
226.747
223.501
221.619
234.59
240.932
253.766
255.025
256.925
253.079
245.038
237.627
226.799
225.223
246.245
250.692
262.355
266.398
268.881
270.177
270.47
269.294
269.827
269.783
276.651
276.826
280.104
277.739
284.98
277.674
282.349
258.668
266.577
266.592
262.948
272.639
282.453
244.287
257.275
278.256
278.358
314.791
302.799
303.1
305.563
295.124
300.195
291.712
279.16
278.292
302.081
303.77
307.795
320.564
307.939
303.525
313.021
308.889
305.804
314.431
315.41
310.155
312.934
314.251
315.867
316.497
314.387
311.626
311.667
324.02
328.025
321.427
321.737
318.037
317.006
313.554
318.518
319.131
320.455
320.773
322.235
324.985
323.164
323.583
322.893
317.081
323.005
319.709
322.999
319.12
0.310749
0.417654
0.129282
0.363805
0.317806
0.302991
0.568872
0.327382
0.375533
0.340085
0.35912
0.400835
0.370968
0.439929
6.02126
9.23395
7.40543
9.33497
12.9496
11.47
35.7636
44.6852
33.8154
43.4063
32.312
37.8704
35.1397
28.9251
31.463
30.8912
34.3836
40.7351
38.9179
214.664
217.833
214.683
192.412
179.03
183.353
189.872
204.368
211.188
220.977
223.305
240.893
246.59
268.29
261.646
252.041
244.292
217.772
219.009
231.4
240.852
260.746
265.986
277.765
275.508
273.017
270.639
265.564
264.14
267.899
268.539
272.971
274.902
277.77
286.114
285.395
289.773
287.329
286.558
288.891
276.412
284.949
295.14
292.798
288.531
294.726
296.867
300.083
294.646
299.468
294.599
296.404
293.518
282.42
269.411
283.738
308.007
310.637
315.301
311.223
300.507
307.998
309.391
307.225
300.301
301.869
309.857
311.785
308.533
310.983
310.45
306.046
312.074
313.723
306.578
317.48
315.485
310.262
317.645
317.221
311.744
315.434
315.547
316.923
317.531
318.588
320.179
319.352
319.241
319.259
317.7
322.614
319.442
321.511
321.636
0.143912
0.201756
0.203944
0.210453
0.210275
0.22862
0.21631
0.229315
0.3454
0.283708
0.3356
0.46966
0.39166
1.04227
1.42683
1.676
2.36349
2.05723
3.0633
12.2083
3.87872
28.8325
28.4268
11.8579
29.1686
14.2337
30.8294
15.709
42.8391
209.301
242.045
239.403
241.412
233.337
223.956
218.302
205.789
192.91
135.503
144.476
148.964
162.186
191.329
194.968
205.331
191.363
224.577
238.933
243.568
250.584
240.71
248.371
254.297
258.573
270.57
264.213
267.971
266.267
265.496
268.36
272.675
271.336
270.504
269.247
271.794
270.085
269.136
280.179
280.962
285.591
286.671
282.981
288.63
279.931
281.574
284.517
286.704
286.705
290.361
292.39
296.781
296.412
299.973
297.526
296.673
298.219
295.735
272.967
286.156
274.92
283.23
301.274
295.965
302.825