# vtk DataFile Version 3.0
vtk output
ASCII
DATASET POLYDATA
POINTS 24578 float
-151.53 81.83 75.23
-146.76 79.98 77.9
-147.26 82.51 76.57
-151.22 79.35 76.36
-146.3 77.32 78.47
-150.76 76.75 77.01
-146.01 74.82 79.56
-150.4 74.19 77.98
-145.43 72.07 79.86
-149.95 71.56 78.66
-145.02 69.6 80.58
-149.55 69.11 79.46
-144.64 67.21 81.53
-149.14 66.64 80.2
-144.27 64.77 82.34
-148.68 64.12 80.8
-144.06 62.18 83.1
-148.26 61.63 81.51
-143.83 59.57 83.96
-148.2 59.14 82.73
-143.54 56.98 84.63
-148.02 56.58 83.6
-143.3 54.28 84.95
-147.52 53.77 83.62
-142.71 51.53 84.98
-147.03 50.98 83.68
-142.34 49.05 85.71
-146.66 48.52 84.06
-142.24 46.57 86.6
-146.26 46.05 84.34
-145.97 43.63 84.94
-141.82 44.09 87.11
-141.56 41.44 87.04
-145.67 41.21 85.5
-140.98 38.76 87.5
-145.29 38.66 85.7
-140.75 36.16 87.85
-144.89 36.1 85.85
-144.62 33.53 86.3
-140.46 33.57 88.45
-140.13 30.94 88.56
-144.22 30.94 86.41
-143.81 28.2 86.49
-139.84 28.2 88.9
-143.44 25.45 86.68
-139.6 25.51 89.44
-143.18 22.67 87.12
-139.22 22.78 89.44
-142.9 19.88 87.51
-138.79 20.04 89.71
-142.6 17.15 87.83
-138.39 17.32 89.75
-137.91 14.61 89.73
-142.25 14.42 88.03
-141.99 11.68 88.46
-137.6 11.89 89.94
-141.61 8.95 88.57
-137.22 9.16 90.05
-141.13 6.27 88.48
-136.86 6.45 90.3
-140.68 3.58 88.47
-136.37 3.76 90.16
-140.25 0.89 88.51
-135.88 1.07 90.03
-139.71 -1.79 88.26
-135.64 -1.76 90.02
-135.64 -4.55 89.75
-140 -4.44 88.09
-135.69 -7.09 89
-140.34 -7.12 88.03
-135.79 -9.62 88.23
-140.37 -9.69 87.25
-135.84 -12.19 87.54
-140.43 -12.27 86.54
-135.99 -14.75 87
-140.5 -14.79 85.8
-136.21 -17.35 86.64
-140.62 -17.33 85.19
-136.42 -19.93 86.21
-140.85 -19.94 84.82
-136.49 -22.42 85.34
-140.79 -22.34 83.7
-136.45 -24.91 84.43
-140.78 -24.79 82.73
-136.55 -27.44 83.74
-140.84 -27.3 81.99
-136.57 -29.97 82.98
-140.97 -29.86 81.42
-136.73 -32.54 82.43
-141.02 -32.36 80.63
-136.76 -35.12 81.64
-141.09 -34.97 79.94
-141.32 -37.69 79.69
-136.83 -37.72 80.96
-141.45 -40.33 79.13
-136.9 -40.34 80.32
-137.11 -43 79.41
-141.48 -42.91 78.35
-141.57 -45.38 77.61
-137.04 -45.54 78.64
-141.59 -47.8 76.7
-137.03 -47.91 77.56
-141.86 -50.43 76.49
-137.15 -50.39 76.9
-141.9 -52.84 75.63
-137.27 -52.84 76.11
-141.91 -55.11 74.4
-137.53 -55.19 75.26
-137.48 -57.49 74.21
-141.9 -57.35 73.07
-142.03 -59.74 72.14
-137.7 -59.92 73.43
-142.25 -62.22 71.44
-137.97 -62.48 72.92
-142.57 -64.67 70.67
-138.15 -65.14 72.4
-142.87 -67.1 69.86
-138.34 -67.41 71.12
-143.16 -69.56 69.09
-138.58 -69.8 70.17
-143.42 -71.97 68.22
-138.72 -72 68.84
-143.42 -74.03 66.78
-138.71 -74.17 67.59
-143.52 -76.26 65.69
-138.9 -76.5 66.65
-143.64 -78.59 64.8
-139.03 -78.91 65.88
-143.64 -80.66 63.43
-139.36 -81.09 64.3
-142.41 80.53 78.87
-142.88 83.09 77.59
-141.83 77.87 79.86
-141.49 75.33 80.8
-140.97 72.61 81.19
-140.47 70.13 81.77
-140.01 67.69 82.47
-139.94 65.21 83.59
-139.84 62.72 84.64
-139.44 60.04 85.13
-139.12 57.42 85.86
-138.88 54.8 86.42
-138.56 52.14 86.78
-138.19 49.56 87.25
-137.83 46.99 87.76
-137.58 44.31 88.01
-137.31 41.63 88.23
-137.03 38.95 89.21
-136.57 36.22 89.77
-136.22 33.57 90.06
-135.88 30.91 90.36
-135.74 28.24 91.1
-135.47 25.56 91.56
-134.94 22.88 91.41
-134.47 20.19 91.43
-134.08 17.49 91.57
-133.61 14.8 91.52
-133.09 12.1 91.2
-132.71 9.37 91.23
-132.3 6.67 91.32
-131.94 3.96 91.53
-131.76 1.11 91.67
-131.5 -1.71 91.62
-131.31 -4.41 90.89
-131.1 -7.09 90.13
-131.35 -9.7 89.79
-131.55 -12.29 89.33
-131.63 -14.81 88.62
-131.74 -17.34 87.96
-131.85 -19.85 87.19
-132.06 -22.42 86.66
-132.19 -25.02 86.17
-132.25 -27.57 85.48
-132.26 -30.09 84.65
-132.44 -32.72 84.26
-132.56 -35.36 83.72
-132.63 -37.97 83.04
-132.75 -40.58 81.94
-132.83 -43.16 80.72
-132.77 -45.71 79.94
-132.75 -48.3 79.25
-132.77 -50.64 78.12
-132.8 -52.99 77
-132.95 -55.32 76.2
-133.13 -57.69 75.53
-133.33 -60.11 74.69
-133.5 -62.48 73.72
-133.64 -65.09 73
-133.72 -67.59 72.04
-133.86 -69.81 70.74
-134.01 -72.03 69.43
-134.18 -74.44 68.63
-134.35 -76.86 67.84
-134.77 -79.33 66.76
-135.07 -81.54 65.2
-138.04 81.11 79.93
-138.51 83.66 78.64
-137.48 78.45 80.95
-136.81 75.7 81.58
-136.53 73.2 82.68
-136.2 70.85 83.66
-136.01 68.35 84.53
-135.78 65.76 85.17
-135.49 63.19 85.82
-135.19 60.56 86.38
-134.98 57.99 87.45
-134.76 55.37 88.25
-134.53 52.77 88.88
-134 50.11 89.1
-133.65 47.3 89.03
-133.3 44.56 89.42
-133.29 41.92 90.17
-132.89 39.2 91
-132.5 36.43 91.58
-132.05 33.68 92.21
-131.7 30.98 92.36
-131.44 28.31 92.66
-131.04 25.67 93.02
-130.62 23.02 93.01
-130.15 20.36 93.11
-129.82 17.66 93.35
-129.27 14.97 93.05
-128.74 12.27 92.73
-128.4 9.55 92.87
-127.96 6.85 92.86
-127.84 4 93.22
-127.59 1.17 93.17
-127.27 -1.64 92.97
-127.25 -4.36 92.57
-127.15 -7.08 92.07
-127.17 -9.83 91.83
-127.29 -12.38 91.16
-127.29 -14.86 90.23
-127.44 -17.42 89.6
-127.57 -19.97 88.96
-127.76 -22.53 88.35
-127.82 -25.1 87.72
-127.85 -27.64 86.95
-127.95 -30.27 86.46
-128.2 -32.95 86.24
-128.25 -35.54 85.49
-128.5 -38.26 84.8
-128.59 -40.83 83.55
-128.62 -43.36 82.3
-128.5 -45.86 81.36
-128.57 -48.51 80.64
-128.51 -50.96 79.6
-128.63 -53.39 78.68
-128.82 -55.89 78.24
-129.15 -58.39 77.85
-129.06 -60.46 76.29
-128.99 -62.4 74.44
-128.98 -64.79 73.19
-129.01 -67.15 71.96
-128.97 -69.58 70.84
-129.28 -72.05 69.98
-129.48 -74.55 69.36
-130.01 -77.21 68.65
-130.42 -79.71 67.63
-130.79 -82.03 66.21
-133.82 81.84 81.46
-134.36 84.47 80.38
-133.19 79.09 82.22
-132.49 76.28 82.7
-131.95 73.65 83.71
-131.93 71.29 85
-131.87 68.9 86.17
-131.5 66.27 86.57
-131.13 63.64 86.94
-130.87 61.02 87.58
-130.68 58.45 88.47
-130.46 55.86 89.34
-130.18 53.24 90.02
-129.88 50.44 90.31
-129.64 47.69 90.79
-129.42 44.94 91.36
-129.23 42.2 92.03
-128.71 39.37 92.41
-128.45 36.65 93.48
-128.03 33.86 94.03
-127.47 31.03 94.24
-127.19 28.41 94.71
-126.88 25.78 95.12
-126.32 23.16 94.88
-125.8 20.53 94.74
-125.36 17.84 94.64
-124.86 15.16 94.43
-124.49 12.44 94.52
-124.2 9.71 94.8
-123.95 6.88 94.78
-123.68 4.05 94.73
-123.4 1.23 94.62
-123.18 -1.6 94.69
-123.37 -4.41 94.84
-123.31 -7.12 94.32
-123.16 -9.79 93.63
-122.95 -12.42 92.76
-123.09 -14.99 92.12
-123.27 -17.57 91.56
-123.4 -20.13 90.9
-123.5 -22.66 90.14
-123.53 -25.22 89.42
-123.57 -27.78 88.7
-123.68 -30.42 88.22
-123.74 -33.02 87.62
-123.94 -35.69 86.77
-124.14 -38.36 85.91
-124.27 -40.96 84.88
-124.51 -43.67 84.17
-124.44 -46.18 83.04
-124.36 -48.68 81.9
-124.32 -51.14 80.87
-124.34 -53.66 80.01
-124.65 -56.22 79.72
-124.85 -58.64 79.12
-124.76 -60.62 77.46
-124.57 -62.46 75.52
-124.49 -64.69 73.94
-124.51 -67.1 72.74
-124.57 -69.65 71.8
-124.65 -72.26 70.99
-125.14 -74.86 70.13
-125.57 -77.36 69.04
-126.01 -79.84 67.96
-126.39 -82.16 66.58
-129.58 82.52 82.46
-130.23 85.32 82
-128.9 79.77 83.09
-128.4 77.11 83.84
-127.98 74.41 84.96
-127.56 71.77 85.9
-127.33 69.24 86.57
-127.15 66.76 87.43
-126.86 64.14 88.01
-126.52 61.49 88.81
-126.36 58.96 89.84
-126.14 56.38 90.8
-125.97 53.53 91.15
-125.51 50.64 91.5
-125.42 47.93 92.31
-125.22 45.19 93.14
-125.05 42.45 93.81
-124.64 39.66 94.38
-124.31 36.88 95.2
-123.77 34.05 95.42
-123.26 31.23 95.69
-122.78 28.52 96.11
-122.44 25.87 96.38
-121.98 23.27 96.26
-121.42 20.65 96.06
-121.04 17.96 96.08
-120.68 15.29 96.36
-120.38 12.57 96.56
-120.17 9.75 96.72
-119.91 6.93 96.66
-119.55 4.12 96.37
-119.27 1.3 96.28
-119.07 -1.54 96.32
-119.25 -4.36 96.51
-119.22 -7.1 96.08
-119.04 -9.77 95.31
-119 -12.5 94.8
-118.91 -15.21 94.19
-119.08 -17.79 93.59
-119.2 -20.38 92.98
-119.3 -22.91 92.18
-119.31 -25.47 91.43
-119.31 -28 90.63
-119.33 -30.55 89.87
-119.45 -33.15 88.84
-119.6 -35.8 87.91
-119.83 -38.5 87.17
-120.05 -41.2 86.43
-120.26 -43.87 85.57
-120.32 -46.42 84.63
-120.24 -48.94 83.59
-120.24 -51.46 82.7
-120.29 -53.99 81.83
-120.1 -56.26 80.6
-120.22 -58.48 79.45
-120.33 -60.66 78.2
-120.24 -62.81 76.84
-120.26 -65.2 75.6
-120.18 -67.48 74.2
-120.23 -70.02 73.25
-120.52 -72.67 72.16
-120.81 -75.19 70.96
-121.18 -77.58 69.65
-121.52 -79.9 68.24
-121.92 -82.27 66.97
-125.25 83.17 83.41
-125.88 85.88 82.84
-124.6 80.45 83.94
-124.22 77.72 84.75
-123.94 75.09 85.93
-123.46 72.43 86.81
-122.93 69.71 87.46
-122.73 67.14 88.15
-122.59 64.64 89.06
-122.25 62 89.9
-121.95 59.4 90.9
-121.96 56.7 91.92
-121.73 53.8 92.2
-121.47 50.99 93.04
-121.27 48.22 94.07
-121.07 45.45 94.8
-120.88 42.69 95.58
-120.53 39.9 96.26
-120.06 37.06 96.59
-119.52 34.23 96.77
-119.19 31.45 97.53
-118.64 28.71 97.7
-118.07 25.97 97.81
-117.65 23.36 97.86
-117.2 20.75 97.82
-116.76 18.09 97.81
-116.45 15.42 98.16
-116.25 12.62 98.27
-115.94 9.82 98.09
-115.72 7.01 98.16
-115.43 4.19 98.08
-115.24 1.34 98.13
-115.02 -1.5 98.11
-115.03 -4.27 97.86
-115.05 -7.04 97.62
-115.01 -9.78 97.12
-114.91 -12.5 96.46
-114.83 -15.21 95.87
-114.79 -17.94 95.36
-114.95 -20.55 94.79
-115.09 -23.14 94.17
-115.09 -25.69 93.41
-115.09 -28.25 92.66
-115.19 -30.82 91.55
-115.34 -33.43 90.58
-115.56 -36.16 89.86
-115.65 -38.76 88.81
-115.73 -41.32 87.6
-115.89 -43.96 86.62
-115.94 -46.5 85.75
-115.97 -49.02 84.82
-116.06 -51.62 84.1
-116.16 -54.22 83.41
-116 -56.46 81.98
-115.78 -58.59 80.34
-115.73 -60.7 78.9
-115.82 -63.01 77.89
-115.91 -65.56 77.02
-115.85 -67.86 75.66
-116.07 -70.39 74.35
-116.45 -73.24 73.66
-116.73 -75.78 72.45
-116.87 -78.01 70.66
-117.13 -80.1 68.85
-117.46 -82.37 67.36
-120.93 83.58 83.84
-121.35 86.18 83.25
-120.43 80.92 84.76
-120.24 78.29 85.68
-119.85 75.73 86.84
-119.39 73.08 87.68
-118.97 70.39 88.56
-118.52 67.71 89.38
-118.27 65.1 89.93
-117.89 62.43 90.71
-117.77 59.68 91.68
-117.62 56.89 92.64
-117.53 54.11 93.38
-117.25 51.28 94.27
-116.99 48.44 95.07
-116.61 45.56 95.63
-116.37 42.76 96.18
-116.01 39.98 96.85
-115.62 37.17 97.41
-115.23 34.39 98.02
-114.97 31.62 98.96
-114.53 28.91 99.33
-113.9 26.15 99.26
-113.4 23.47 99.53
-113.04 20.85 99.72
-112.61 18.2 99.71
-112.34 15.45 99.77
-112.11 12.66 99.75
-111.7 9.9 99.43
-111.54 7.08 99.65
-111.31 4.26 99.65
-111.1 1.42 99.6
-110.91 -1.42 99.76
-110.84 -4.17 99.3
-110.76 -6.92 98.71
-110.8 -9.71 98.47
-110.76 -12.46 97.96
-110.67 -15.19 97.39
-110.65 -17.93 96.92
-110.56 -20.62 96.27
-110.66 -23.19 95.59
[...]
CELL_DATA 49152
SCALARS Temperature float 1
LOOKUP_TABLE default
3.76605
3.4711
11.4298
1.852
2.96168
2.23511
3.23069
2.68296
2.704
11.5331
10.6855
10.7651
9.95807
6.89587
1.46525
1.84787
2.02806
7.10328
10.4672
11.2299
11.0674
2.52691
0.498381
0.414462
0.448977
0.54281
0.745515
0.695999
0.757453
0.79635
0.47218
0.53605
0.308742
0.173689
0.430342
0.249289
0.319297
0.562094
0.318899
0.210164
0.165989
0.29667
0.249716
0.325458
0.295567
0.110218
0.250221
0.192348
0.212218
0.0246384
0.0345146
0.030063
0.158791
0.00441636
0.00265472
0.00261218
0.00084971
0.00255738
0.00816658
0.00081153
0.000436013
0.000696962
0.000649353
0.000793187
0.00247026
0.00202799
5.79504e-05
0.000140802
0.000120203
0.000110362
0.00010945
0.000101841
0.000103636
7.74107e-05
9.65574e-05
6.21808e-05
7.82302e-05
8.16637e-05
1.4339e-05
0.000112165
7.9098e-05
1.63066e-05
2.46214e-05
2.82423e-05
2.46121e-05
3.18978e-05
3.42122e-05
2.53327e-05
2.49645e-05
3.08094e-05
4.62561e-05
1.10665e-05
2.97887e-05
1.22668e-05
6.26175e-06
1.64397e-05
1.66244e-05
4.24432e-06
5.57066e-06
4.11837e-06
4.8598e-06
1.9012e-06
2.41704e-06
1.57386e-06
1.47275e-06
1.08475e-06
7.88461e-07
5.18349e-07
5.60408e-07
6.88862e-07
8.16247e-07
1.04559e-06
7.60057e-07
1.04931e-06
5.45926e-07
1.61624e-07
2.02581e-07
2.3051e-07
3.06447e-07
3.35169e-07
3.51725e-07
2.50418e-07
2.37858e-07
2.2622e-07
2.35835e-07
2.52246e-07
6.91807e-08
7.48292e-08
4.29632
4.33603
14.1336
13.9632
2.51251
3.49507
14.2825
2.47239
2.07749
2.28703
1.99057
2.45045
2.3997
10.2313
7.76967
1.58146
6.50837
11.3381
10.8288
10.174
0.502596
1.59547
1.15944
0.661259
1.25262
1.07152
1.11791
2.81409
2.78004
3.00844
0.249874
0.619651
0.176847
0.244569
0.447756
0.499741
0.535755
0.121573
0.130952
0.125074
0.198791
0.550613
0.504166
0.458287
0.0273965
0.0129052
0.0166226
0.00764193
0.00346782
0.0174638
0.0172983
0.0186148
0.00105951
0.00209555
0.00199268
0.00243958
0.0026265
0.00206706
0.00169572
0.00199504
0.000903167
0.00222395
0.00143913
0.000473228
0.000341491
0.000273589
0.000148326
0.000135012
0.000143024
7.49513e-05
0.000103724
3.13503e-05
2.72727e-05
6.82419e-05
2.78904e-05
8.90604e-05
2.89411e-05
8.34557e-05
3.53997e-05
1.94456e-05
3.15727e-05
7.6497e-05
1.68083e-05
2.09599e-05
1.54246e-05
1.81998e-05
3.36884e-05
3.62692e-05
3.68601e-05
3.22814e-05
3.51737e-05
3.44067e-05
1.01573e-05
2.79404e-05
7.75361e-06
6.12336e-06
5.01529e-06
4.2868e-06
4.46788e-06
4.91128e-06
4.51457e-06
2.33597e-06
2.28524e-06
1.13921e-06
1.11911e-06
1.09068e-06
8.9833e-07
8.59813e-07
8.3163e-07
7.33104e-07
1.01673e-06
5.22692e-07
1.11432e-06
8.52e-07
2.88423e-07
2.30443e-07
2.64977e-07
3.11868e-07
3.04248e-07
2.48598e-07
2.54248e-07
2.21717e-07
2.16067e-07
2.32278e-07
2.41147e-07
2.21287e-07
9.30476e-08
7.95211e-08
4.84362
4.47437
13.2733
13.1217
17.2239
16.7431
15.7993
2.45147
2.11718
2.42327
2.42152
2.25907
2.18629
2.29431
2.74514
10.0209
13.8593
12.6329
8.53002
1.94829
1.95809
1.78676
1.66096
1.55961
1.23664
1.24506
0.637564
0.821038
0.341848
0.439423
0.995338
0.43876
0.52635
0.969883
0.717859
0.761396
0.355539
0.785538
0.441612
0.26632
0.531825
0.0700964
0.250389
0.0790797
0.043779
0.0152048
0.00289292
0.00216209
0.00252243
0.0045249
0.0126342
0.00271241
0.00161739
0.00145395
0.00125417
0.0018227
0.00159605
0.00160806
0.00188232
0.004528
0.00429835
0.00303641
0.00264403
0.0011328
0.000202684
0.000317668
0.000143015
5.93821e-05
0.000108917
0.000104396
3.14233e-05
4.50955e-05
2.05972e-05
1.75285e-05
1.707e-05
1.93611e-05
1.81664e-05
1.77384e-05
1.94123e-05
1.76614e-05
1.5642e-05
3.01258e-05
1.435e-05
2.1941e-05
2.90484e-05
1.6463e-05
3.26533e-05
4.07392e-05
2.81444e-05
3.22624e-05
2.86904e-05
2.82676e-05
7.92907e-06
7.23911e-06
6.4405e-06
6.31162e-06
5.63315e-06
4.3829e-06
3.89051e-06
3.68909e-06
3.09842e-06
3.1313e-06
3.02282e-06
2.50475e-06
2.66635e-06
3.43447e-06
2.86904e-06
3.62058e-06
5.3503e-07
5.24774e-07
2.41946e-07
1.52519e-07
1.66633e-07
1.68226e-07
2.8015e-07
2.47897e-07
3.28196e-07
1.77604e-07
1.97346e-07
2.01203e-07
2.4471e-07
2.07454e-07
3.35632e-07
3.05394e-07
2.70048e-07
2.53208e-07
2.0749e-07
4.27094e-08
3.79891
3.8304
11.1171
7.77055
18.2557
17.7063
13.8675
11.9143
6.25611
3.7464
5.08746
2.38551
7.95316
11.093
14.5793
15.2445
15.2142
14.072
12.1982
12.6869
12.7439
11.5122
10.964
10.0716
3.47036
3.13216
3.14039
0.54515
0.53667
0.976756
1.13673
1.01075
0.996922
0.296544
0.281218
1.04614
0.769921
0.652215
0.134969
0.0864323
0.326025
0.437043
0.367195
0.422685
0.0168651
0.00876614
0.00283325
0.00405057
0.00172148
0.0040675
0.00250792
0.00222368
0.00242738
0.00168578
0.00154001
0.00526254
0.00159507
0.00174064
0.00659212
0.00346569
0.00341695
0.00130677
0.00152774
0.00126594
0.00668896
0.000818847
0.00078906
0.000272191
4.76073e-05
8.94009e-05
2.36216e-05
1.62824e-05
2.01969e-05
1.90525e-05
2.14155e-05
2.14853e-05
1.97813e-05
2.02385e-05
2.07418e-05
1.86048e-05
7.89152e-05
6.54791e-05
5.44331e-05
4.73162e-05
2.01288e-05
1.92715e-05
3.7162e-05
2.36268e-05
9.49158e-06
9.50371e-06
8.27353e-06
1.22557e-05
3.60411e-06
3.87309e-06
4.83674e-06
6.41005e-06
5.79046e-06
5.36396e-06
4.6556e-06
3.006e-06
2.17873e-06
2.19335e-06
2.21395e-06
2.41902e-06
3.06867e-06
3.4596e-06
3.40372e-06
2.54449e-06
2.37908e-07
1.82571e-07
1.79197e-07
1.68384e-07
7.77967e-08
7.11446e-08
7.30383e-08
7.03864e-08
7.77904e-08
7.64098e-08
1.8601e-07
1.89174e-07
1.97921e-07
1.96372e-07
2.47353e-07
5.38491e-07
5.92549e-07
6.53965e-07
9.40226e-07
9.40858e-07
17.752
12.1783
20.8213
19.943
19.5602
19.4126
5.42957
4.78708
6.64463
6.23866
19.2523
19.3415
21.4967
20.2955
19.4805
18.1558
15.962
14.7302
12.0315
9.56114
8.8704
6.05684
9.13686
10.7252
3.69975
3.57106
3.5827
2.47939
2.42575
1.43338
1.02254
1.00466
0.385675
0.834021
1.04497
0.920315
0.546527
0.605866
1.44782
0.438924
2.00127
0.18625
0.177165
0.100197
0.110455
0.0190825
0.0028415
0.00287729
0.00303119
0.00259618
0.00280888
0.00898059
0.00603851
0.009663
0.00891194
0.00931068
0.00477442
0.00209112
0.0013094
0.00100123
0.00125113
0.00130098
0.00143059
0.00141936
0.00714082
0.00742292
0.0003724
0.000572137
0.00041566
0.000128456
7.81922e-05
0.00010893
2.2929e-05
2.40029e-05
2.40237e-05
2.44157e-05
3.39323e-05
2.63152e-05
0.000106178
0.000102735
9.37017e-05
8.69482e-05
7.38382e-05
6.44358e-05
5.14286e-05
1.96925e-05
5.63148e-06
1.24999e-05
7.89536e-06
9.683e-06
8.52282e-06
7.6579e-06
7.73673e-06
4.9098e-06
4.13484e-06
6.34696e-06
2.55884e-06
4.40745e-06
4.03452e-06
4.18731e-06
3.91951e-06
3.69081e-06
3.50083e-06
3.44035e-06
3.79018e-06
2.93482e-07
5.22366e-07
3.32467e-07
2.92122e-07
2.50714e-07
1.28561e-07
1.47394e-07
1.0872e-07
1.05723e-07
9.5519e-08
7.6689e-08
7.71739e-08
1.63885e-07
1.71141e-07
1.61593e-07
1.77962e-07
1.32739e-07
1.47783e-07
9.88129e-08
4.78346e-07
6.83941e-07
7.49044e-07
7.31083e-07
24.8142
24.1601
23.9722
23.0551
20.7841
20.2488
12.9046
13.222
17.9048
17.3847
20.9203
20.3017
20.5606
20.0779
20.1093
18.6838
17.4412
16.4874
15.5015
15.1669
15.1574
13.5119
13.0373
12.1824
4.61514
2.57962
2.28303
2.55423
1.83091
1.85011
1.0211
1.47468
0.706042
0.878071
0.907699
1.95274
0.655237
0.749704
1.73498
0.48004
0.249299
0.020182
0.0306924
0.094748
0.0311343
0.0138957
0.0109784
0.00887318
0.0107294
0.0100179
0.0121054
0.0128337
0.0110271
0.0106816
0.00221166
0.00876411
0.00432655
0.00329496
0.000805228
0.00124033
0.00107216
0.000938513
0.00125689
0.00110584
0.000663522
0.00129408
5.99729e-05
0
8.69023e-06
0.000177504
0.000148164
5.90734e-05
2.23833e-05
1.35235e-05
3.6825e-05
3.49918e-05
7.15298e-05
8.20004e-05
7.74284e-05
9.47259e-05
8.77414e-05
8.45621e-05
7.5992e-05
7.11532e-05
5.98112e-05
4.10718e-05
8.88845e-06
2.95436e-06
1.14066e-05
2.89163e-06
3.37155e-06
1.95052e-06
1.21206e-06
7.6444e-07
8.19166e-07
4.56921e-06
7.31594e-07
6.24489e-07
6.06165e-07
7.4619e-07
6.03222e-07
2.06214e-06
2.35963e-06
3.2149e-06
1.69312e-06
2.80659e-07
9.74303e-08
6.89659e-08
7.75469e-08
1.94232e-07
1.06022e-07
7.10397e-08
1.60768e-07
2.06784e-07
1.00991e-07
9.96605e-08
1.72511e-07
1.39678e-07
1.75183e-07
1.97484e-07
1.42882e-07
1.49505e-07
1.99994e-07
1.2411e-07
2.24584e-07
5.48764e-07
5.96447e-07
7.20386e-07
29.6981
28.5818
25.5089
25.9318
19.5002
19.87
18.1242
16.1971
20.7288
20.2509
20.8503
20.3258
18.8141
18.1551
20.0182
19.6562
21.1494
20.3352
19.5299
19.0181
18.0434
17.5163
15.59
4.27143
4.3993
4.15059
4.22984
4.59262
4.38023
4.61336
4.50111
4.7132
4.49486
4.45863
4.17637
3.59346
3.21513
3.01965
3.0252
2.93198
0.00414848
0.0133405
0.0161314
0.111864
0.0235321
0.0214519
0.00996898
0.0133211
0.011289
0.0104492
0.0130005
0.00864998
0.0107551
0.00447176
0.00620217
0.00576136
0.00481025
0.00232555
0.00104679
0.00167722
0.00203603
0.00173609
0.00190306
0.00700137
6.57673e-06
3.76372e-06
2.05533e-05
4.32586e-05
2.85264e-05
2.65775e-05
2.8345e-06
5.86502e-06
4.02568e-06
6.47639e-06
6.13717e-06
2.35119e-05
9.49854e-06
1.00237e-05
8.88986e-06
9.15918e-06
5.28027e-06
5.54196e-06
3.51089e-06
3.12859e-06
1.87905e-06
2.40822e-05
2.54745e-05
4.85007e-06
1.24089e-05
1.31557e-05
4.86693e-06
3.90651e-06
4.15552e-06
8.39934e-07
8.91275e-07
7.77396e-07
7.28846e-07
6.85567e-07
4.78504e-07
5.50348e-07
6.82659e-07
6.37541e-07
6.6903e-07
5.9834e-07
2.88993e-07
8.28376e-08
9.63288e-08
1.06701e-07
1.064e-07
1.05526e-07
1.11335e-07
1.03583e-07
1.89848e-07
1.155e-07
1.49677e-07
1.40959e-07
1.2573e-07
1.80022e-07
2.49101e-07
2.9588e-07
3.12053e-07
2.15985e-07
4.09539e-07
4.53209e-07
5.07884e-07
5.32487e-07
5.49242e-07
6.39996e-07
26.4845
27.9632
23.6908
23.1107
23.6359
23.3447
23.1846
23.2492
24.2487
23.8221
22.9896
22.0918
22.1521
21.1783
24.3942
23.3234
21.3693
19.8778
19.5476
19.0065
17.874
17.1621
5.77088
5.46207
5.34279
5.1471
5.10747
5.19098
5.09462
5.04342
4.95691
4.65318
4.4659
4.26387
3.7289
3.57775
3.26633
3.09431
2.94186
2.61059
2.30545
2.14218
1.15253
0.121538
0.145734
0.186924
0.155589
0.167595
0.00918874
0.0163904
0.00872971
0.00733858
0.0166236
0.00983111
0.00684889
0.00605652
0.00179715
0.00342782
0.00188236
0.00110489
0.000793152
0.000383701
0.00248971
6.47908e-05
4.91076e-05
4.6849e-05
2.51923e-05
1.52114e-05
1.66037e-05
2.30585e-05
1.27357e-05
2.41684e-06
1.33017e-05
2.83057e-06
1.45817e-05
3.13903e-05
8.4734e-05
2.431e-05
2.25775e-06
1.38712e-06
1.669e-06
1.46821e-06
1.40366e-06
1.46492e-06
1.19126e-06
1.00294e-06
6.06972e-07
7.19181e-07
9.32969e-07
1.71678e-06
6.6353e-07
1.1446e-06
8.91162e-07
1.95276e-06
5.88342e-07
6.76972e-07
5.73595e-07
6.13791e-07
1.51612e-06
1.42966e-06
4.76809e-07
6.02799e-07
5.63607e-07
4.21564e-07
3.92045e-07
8.31031e-08
8.09696e-08
1.22116e-07
1.04603e-07
1.18444e-07
1.20054e-07
1.01375e-07
1.0715e-07
1.04409e-07
1.12171e-07
9.68988e-08
1.47054e-07
8.37633e-08
2.40931e-07
3.64031e-07
4.5804e-07
6.19848e-07
7.92001e-07
6.85074e-07
7.65444e-07
6.30149e-07
5.65824e-07
2.95604e-07
181.888
26.4398
25.5642
24.5119
25.009
21.7122
21.0578
21.7868
21.6976
23.956
24.0319
22.7486
24.7427
24.1342
23.4127
22.6429
18.8382
17.714
6.22595
19.2678
5.92255
17.6797
5.9111
5.6839
5.85972
5.53816
5.65833
5.12823
5.20215
3.96088
4.07747
3.51617
3.58582
3.53155
2.98925
2.74274
2.82408
2.36451
1.47311
1.27147
1.24179
1.3703
0.30704
0.390213
0.23579
0.167701
0.174524
0.186043
0.16319
0.162946
0.110721
0.092071
0.0337645
0.0331624
0.0222782
0.014558
0.00447047
0.00788754
0.00205803
0.00877808
0.000514554
0.000296071
3.01949e-05
1.72365e-05
1.22355e-05
1.26493e-05
1.42809e-05
1.07597e-05
9.84136e-06
9.87495e-06
5.21324e-06
4.63015e-06
9.31846e-06
8.02772e-06
8.55758e-06
1.557e-05
0.000382825
4.35379e-05
4.39557e-05
9.54555e-06
5.19528e-06
3.33523e-06
3.58729e-06
9.55568e-07
8.76631e-07
1.09208e-06
8.47857e-07
5.1115e-07
6.49321e-07
8.78972e-07
1.56452e-06
1.68538e-06
1.34347e-06
2.2627e-06
1.72242e-06
5.45417e-07
1.11352e-06
1.16809e-06
1.14959e-06
1.38356e-06
1.32783e-06
4.75946e-07
1.47625e-07
1.83432e-07
4.65196e-08
1.96178e-08
3.14839e-08
5.61578e-08
7.66707e-08
7.12105e-08
2.13232e-07
2.08101e-07
2.37823e-07
2.00919e-07
2.29169e-07
2.20544e-07
1.51528e-07
1.65966e-07
1.76192e-07
1.29565e-07
2.03283e-07
2.07448e-07
4.64571e-07
5.52276e-07
6.47092e-07
7.89014e-07
7.0704e-07
8.39532e-07
167.865
241.47
208.362
194.162
192.865
43.9338
121.674
215.376
26.2379
23.7372
9.53568
9.40844
14.5191
8.58724
15.9042
16.5298
14.3062
13.2899
7.79141
17.3191
9.30708
17.5359
11.9971
6.82175
11.8575
5.95938
5.37
5.49475
8.85536
8.46826
4.35354
4.2461
3.83765
7.17626
2.65038
2.0707
2.08093
1.99808
1.9991
2.37813
2.52384
3.06851
0.439696
0.175772
0.24571
0.216636
0.161411
0.192514
0.144931
0.172489
0.112114
0.00460106
0.0472205
0.0605736
0.049095
0.0428688
0.0112144
0.0128387
0.0121205
0.07879
0.000402238
0.000133672
0.000120112
8.10231e-05
1.61978e-05
1.50189e-05
2.00567e-05
1.60087e-05
1.68545e-05
4.59334e-06
6.14944e-06
4.06334e-06
1.15608e-05
9.06505e-06
7.7339e-07
2.41846e-06
7.37668e-07
2.32478e-06
1.64119e-06
1.02424e-06
1.29545e-06
3.92339e-06
4.06848e-06
4.58359e-06
3.39722e-06
1.13658e-06
7.52826e-07
6.72619e-07
2.02954e-06
1.72557e-06
2.50504e-06
3.02093e-06
3.7896e-06
2.66926e-06
2.46602e-06
2.28834e-06
2.31776e-06
2.20243e-06
2.28302e-06
2.27929e-06
2.21312e-06
1.79752e-06
1.39486e-06
1.69443e-07
1.02964e-07
1.07097e-07
9.29378e-08
8.16546e-08
8.73827e-08
6.29381e-08
7.12096e-08
2.22315e-07
1.62699e-06
2.18043e-07
1.81507e-06
2.39839e-07
1.3856e-07
1.5674e-07
1.58222e-07
1.30459e-07
1.62605e-07
2.36534e-07
2.29548e-07
2.68102e-07
3.50194e-06
1.22806e-06
3.37659e-06
1.29117e-06
233.069
251.432
255.561
225
25.2123
24.1402
42.7352
31.91
34.1066
31.2265
26.9804
18.4147
16.7648
31.5999
22.3277
22.1392
17.8291
22.5238
21.771
28.9018
21.6796
19.3042
5.61959
9.96331
6.31562
5.65883
5.80695
5.89041
4.95222
5.15803
2.63866
2.43008
7.81527
2.0656
2.27705
2.44048
2.21397
2.82465
3.19856
3.73005
4.75981
5.28382
4.25469
4.50487
4.09613
0.591501
0.38437
1.39542
1.0851
0.0568518
0.0100658
0.0663483
0.0680567
0.079198
0.0578089
0.0812278
0.436726
0.390765
0.516974
0.353281
0.0144456
0.0122244
0.0101727
0.00737378
0.00541939
0.000891101
0.0011834
2.15199e-05
1.91944e-05
2.15097e-05
2.13171e-05
9.27999e-06
2.71369e-06
7.82526e-06
2.61984e-06
1.59032e-05
3.67745e-07
5.0432e-07
3.94834e-07
2.76166e-07
1.03408e-06
1.18e-06
1.17101e-06
4.13214e-06
3.7851e-06
3.21859e-06
3.01329e-06
1.97981e-06
3.66734e-06
2.99704e-06
3.51339e-06
3.52887e-06
3.48548e-06
3.62788e-06
3.45298e-06
3.58718e-06
3.40845e-06
1.89021e-06
1.851e-06
1.72962e-06
1.67048e-06
1.59166e-06
1.50991e-06
9.16381e-07
8.34977e-08
8.68181e-08
8.14695e-08
8.61087e-08
9.77051e-08
9.62751e-08
9.16819e-08
9.6225e-08
1.57502e-07
1.70829e-07
1.42075e-07
1.57369e-07
1.54537e-07
1.60892e-07
1.5408e-07
1.59703e-07
2.2728e-07
2.7438e-07
2.87316e-07
2.68945e-07
2.84534e-06
4.14387e-06
4.82688e-06
3.44202e-06
179.273
107.023
71.4408
59.6026
47.9215
43.7777
49.011
51.5769
27.6905
34.3453
25.1237
21.653
34.7937
46.4512
21.6913
31.5959
26.5851
37.8135
34.7744
31.2843
20.7167
41.9671
30.8718
8.97622
9.0644
8.09607
7.07791
15.323
4.25063
7.2664
2.69753
2.99305
2.15912
1.72497
2.38709
2.53754
3.17826
4.08379
4.32986
5.14225
5.20077
5.04357
4.66614
5.02219
3.7757
4.96818
5.02318
4.83445
1.17219
1.70142
1.48253
1.09858
0.869999
0.768543
0.603425
0.434491
0.327814
0.133927
0.154597
0.108694
0.0283447
0.056907
0.012014
0.00502407
0.00383168
0.00174246
0.000848775
0.00115142
0.00102201
1.71968e-05
2.10465e-05
3.47047e-06
1.00297e-06
1.34785e-06
1.58678e-06
2.00674e-06
1.16154e-06
9.49655e-07
7.40547e-07
2.75088e-07
8.20121e-07
1.00862e-06
9.82527e-07
9.93058e-07
8.33121e-07
1.81768e-06
2.58394e-07
3.08916e-06
3.05047e-06
3.37647e-06
3.29858e-06
2.82596e-06
2.82676e-06
2.07722e-06
1.63836e-06
5.23634e-07
8.97142e-07
9.89278e-07
8.87611e-07
1.17405e-07
1.03768e-07
1.19192e-06
1.07002e-06
7.65251e-07
9.10688e-08
8.8698e-08
6.08085e-08
1.12668e-07
7.26706e-08
7.95424e-08
7.37388e-08
8.00263e-08
1.01886e-07
1.20347e-07
1.19081e-07
1.33455e-07
1.35955e-07
1.25379e-07
2.75087e-07
1.11719e-07
3.03937e-07
4.05384e-07
4.71875e-07
7.33525e-07
8.3976e-07
2.08687e-06
6.06273e-06
6.85617e-06
225.747
226.868
169.266
152.92
40.7824
60.1964
58.2078
45.6343
35.015
33.8288
36.7442
37.2464
47.6463
36.1836
23.167
22.604
34.6027
40.1673
28.7907
54.0141
56.546
55.7637
46.2034
20.9146
15.4881
26.7831
21.2612
34.4555
5.36658
9.65397
3.23194
1.49061
1.70495
2.78438
2.94302
4.08086
4.38034
4.60839
5.66825
5.71906
3.91464
2.33443
4.83851
2.62524
5.87477
4.63775
5.96682
4.44439
2.50469
4.89355
1.62226
4.19657
1.02666
0.284496
0.158117
0.19222
0.159673
0.159174
0.131997
0.0456638
0.108975
0.120163
0.0152556
0.11355
0.00880733
0.073859
5.63589e-05
1.95122e-05
4.99979e-06
6.37116e-06
1.70045e-06
1.34504e-05
2.9929e-07
2.83847e-07
2.88619e-07
1.16199e-06
2.6842e-07
1.33223e-06
1.33887e-06
9.14346e-07
1.17365e-06
9.17782e-07
9.94091e-07
9.39635e-07
7.03747e-07
6.17723e-07
6.02737e-07
1.25059e-07
6.71632e-07
8.3579e-07
1.26463e-06
7.84213e-07
9.15369e-07
7.6651e-08
1.9888e-10
2.50991e-10
3.6376e-10
1.05919e-06
9.52938e-07
1.16007e-06
1.10475e-06
2.01026e-07
3.01497e-08
7.00175e-08
5.87678e-08
3.51631e-08
3.61033e-08
3.99959e-08
4.23439e-08
8.11039e-08
8.20485e-08
6.53556e-08
7.92273e-08
9.09283e-08
1.10474e-07
1.083e-07
2.44997e-07
2.58498e-07
2.75311e-07
2.72335e-07
3.57601e-07
3.52991e-07
4.126e-07
6.47336e-07
7.83508e-07
9.23695e-07
1.1134e-06
6.87851e-06
263.588
257.075
230.87
221.292
152.452
149.375
36.0778
41.0751
28.5563
46.7261
42.5471
47.8498
47.0206
40.6363
36.7304
32.6618
43.6269
69.5357
60.4452
57.4595
66.084
46.5329
50.8828
160.435
231.664
224.019
32.5217
28.2491
2.31308
1.52063
15.2437
11.152
5.8254
4.9531
8.3033
10.0937
8.56123
8.80888
8.15179
8.02151
8.56999
6.45322
5.69556
4.69038
4.84836
5.51851
2.91164
5.73518
4.72851
6.56401
3.57808
8.12781
0.907682
0.52038
0.400943
0.0734332
0.178879
0.183171
0.128173
0.0658539
0.139134
0.0233312
0.115751
0.039163
3.85854e-05
3.68871e-05
4.68286e-06
1.1898e-06
5.71238e-07
3.61757e-06
9.71242e-06
1.26368e-05
8.41696e-06
1.2688e-06
1.30347e-06
1.12785e-06
3.0892e-07
2.85068e-07
6.15603e-07
1.00017e-06
9.37216e-07
1.19011e-06
1.07568e-06
1.10393e-06
5.82715e-07
9.17395e-07
8.88944e-07
7.8565e-07
2.64959e-08
3.55566e-08
2.54755e-08
2.26234e-08
9.03234e-09
5.99912e-09
6.56003e-09
3.20973e-09
2.84201e-10
4.12912e-10
6.26385e-09
4.59537e-09
1.24482e-08
7.56569e-08
5.83194e-08
8.04794e-08
7.62167e-08
1.44355e-08
1.14426e-08
9.2872e-09
9.95499e-09
5.53875e-08
8.76972e-08
5.38689e-08
7.64956e-08
5.97489e-08
1.96281e-07
1.78821e-07
1.8994e-07
2.31004e-07
1.77762e-06
3.28748e-07
2.77346e-06
4.24868e-07
3.92089e-06
6.22466e-07
4.96482e-06
4.0067e-06
4.50587e-06
5.06415e-06
282.895
277.555
265.183
269.29
261.394
263.123
252.439
247.844
229.591
210.645
39.7865
54.6627
41.2229
40.414
39.7927
63.3452
70.2615
73.1775
59.6454
60.0174
43.0745
102.655
242.419
256.333
306.609
312.4
298.596
296.643
204.3
23.4419
49.5892
38.0918
19.1172
8.51123
12.5478
14.9554
6.68901
9.95452
9.11103
8.97361
8.10526
8.01886
5.68604
7.19492
5.71323
6.85572
5.98667
9.40289
10.9132
10.9463
9.27128
13.8986
0.104093
0
0.0336809
0.0350971
0.0914194
0.00852062
0.0137459
0.00196962
0.00722268
0.00723599
0.0104525
0
6.02587e-05
5.21796e-05
7.88633e-06
3.35144e-06
2.85192e-06
3.31828e-06
7.92076e-06
1.2294e-05
8.78473e-06
1.351e-05
1.41368e-05
6.79867e-06
1.13352e-06
6.37047e-07
9.42875e-07
9.60164e-07
8.59321e-07
9.51378e-07
6.55963e-07
1.01729e-06
3.92197e-07
4.12182e-07
5.72935e-07
7.85854e-07
3.39043e-08
1.12686e-08
8.22906e-09
7.68135e-09
3.34841e-09
6.59766e-09
5.29049e-09
5.25273e-09
0
0
6.42667e-10
2.65334e-10
3.96569e-10
9.12741e-08
9.39708e-08
1.99122e-08
5.36036e-08
1.37065e-08
9.84472e-09
8.43252e-09
5.6327e-09
8.49139e-09
2.60043e-09
7.36409e-08
1.8213e-07
1.42278e-07
6.83077e-07
1.53724e-06
1.56453e-06
1.64047e-06
1.1363e-06
2.06018e-06
1.0173e-06
4.56168e-06
5.67966e-06
3.40914e-06
3.92201e-06
5.38549e-06
5.39013e-06
5.61013e-06
307.453
312.656
306.429
304.108
286.737
284.506
279.742
277.13
291.273
292.615
285.362
283.527
249.115
249.652
168.995
219.236
240.149
138.407
228.64
233.884
217.89
215.376
247.037
104.491
251.303
330.377
308.683
342.932
318.05
286.05
288.678
88.8132
217.862
215.705
119.868
112.413
12.3169
10.6877