# vtk DataFile Version 3.0
vtk output
ASCII
DATASET POLYDATA
POINTS 24578 float
-151.53 81.83 75.23
-146.76 79.98 77.9
-147.26 82.51 76.57
-151.22 79.35 76.36
-146.3 77.32 78.47
-150.76 76.75 77.01
-146.01 74.82 79.56
-150.4 74.19 77.98
-145.43 72.07 79.86
-149.95 71.56 78.66
-145.02 69.6 80.58
-149.55 69.11 79.46
-144.64 67.21 81.53
-149.14 66.64 80.2
-144.27 64.77 82.34
-148.68 64.12 80.8
-144.06 62.18 83.1
-148.26 61.63 81.51
-143.83 59.57 83.96
-148.2 59.14 82.73
-143.54 56.98 84.63
-148.02 56.58 83.6
-143.3 54.28 84.95
-147.52 53.77 83.62
-142.71 51.53 84.98
-147.03 50.98 83.68
-142.34 49.05 85.71
-146.66 48.52 84.06
-142.24 46.57 86.6
-146.26 46.05 84.34
-145.97 43.63 84.94
-141.82 44.09 87.11
-141.56 41.44 87.04
-145.67 41.21 85.5
-140.98 38.76 87.5
-145.29 38.66 85.7
-140.75 36.16 87.85
-144.89 36.1 85.85
-144.62 33.53 86.3
-140.46 33.57 88.45
-140.13 30.94 88.56
-144.22 30.94 86.41
-143.81 28.2 86.49
-139.84 28.2 88.9
-143.44 25.45 86.68
-139.6 25.51 89.44
-143.18 22.67 87.12
-139.22 22.78 89.44
-142.9 19.88 87.51
-138.79 20.04 89.71
-142.6 17.15 87.83
-138.39 17.32 89.75
-137.91 14.61 89.73
-142.25 14.42 88.03
-141.99 11.68 88.46
-137.6 11.89 89.94
-141.61 8.95 88.57
-137.22 9.16 90.05
-141.13 6.27 88.48
-136.86 6.45 90.3
-140.68 3.58 88.47
-136.37 3.76 90.16
-140.25 0.89 88.51
-135.88 1.07 90.03
-139.71 -1.79 88.26
-135.64 -1.76 90.02
-135.64 -4.55 89.75
-140 -4.44 88.09
-135.69 -7.09 89
-140.34 -7.12 88.03
-135.79 -9.62 88.23
-140.37 -9.69 87.25
-135.84 -12.19 87.54
-140.43 -12.27 86.54
-135.99 -14.75 87
-140.5 -14.79 85.8
-136.21 -17.35 86.64
-140.62 -17.33 85.19
-136.42 -19.93 86.21
-140.85 -19.94 84.82
-136.49 -22.42 85.34
-140.79 -22.34 83.7
-136.45 -24.91 84.43
-140.78 -24.79 82.73
-136.55 -27.44 83.74
-140.84 -27.3 81.99
-136.57 -29.97 82.98
-140.97 -29.86 81.42
-136.73 -32.54 82.43
-141.02 -32.36 80.63
-136.76 -35.12 81.64
-141.09 -34.97 79.94
-141.32 -37.69 79.69
-136.83 -37.72 80.96
-141.45 -40.33 79.13
-136.9 -40.34 80.32
-137.11 -43 79.41
-141.48 -42.91 78.35
-141.57 -45.38 77.61
-137.04 -45.54 78.64
-141.59 -47.8 76.7
-137.03 -47.91 77.56
-141.86 -50.43 76.49
-137.15 -50.39 76.9
-141.9 -52.84 75.63
-137.27 -52.84 76.11
-141.91 -55.11 74.4
-137.53 -55.19 75.26
-137.48 -57.49 74.21
-141.9 -57.35 73.07
-142.03 -59.74 72.14
-137.7 -59.92 73.43
-142.25 -62.22 71.44
-137.97 -62.48 72.92
-142.57 -64.67 70.67
-138.15 -65.14 72.4
-142.87 -67.1 69.86
-138.34 -67.41 71.12
-143.16 -69.56 69.09
-138.58 -69.8 70.17
-143.42 -71.97 68.22
-138.72 -72 68.84
-143.42 -74.03 66.78
-138.71 -74.17 67.59
-143.52 -76.26 65.69
-138.9 -76.5 66.65
-143.64 -78.59 64.8
-139.03 -78.91 65.88
-143.64 -80.66 63.43
-139.36 -81.09 64.3
-142.41 80.53 78.87
-142.88 83.09 77.59
-141.83 77.87 79.86
-141.49 75.33 80.8
-140.97 72.61 81.19
-140.47 70.13 81.77
-140.01 67.69 82.47
-139.94 65.21 83.59
-139.84 62.72 84.64
-139.44 60.04 85.13
-139.12 57.42 85.86
-138.88 54.8 86.42
-138.56 52.14 86.78
-138.19 49.56 87.25
-137.83 46.99 87.76
-137.58 44.31 88.01
-137.31 41.63 88.23
-137.03 38.95 89.21
-136.57 36.22 89.77
-136.22 33.57 90.06
-135.88 30.91 90.36
-135.74 28.24 91.1
-135.47 25.56 91.56
-134.94 22.88 91.41
-134.47 20.19 91.43
-134.08 17.49 91.57
-133.61 14.8 91.52
-133.09 12.1 91.2
-132.71 9.37 91.23
-132.3 6.67 91.32
-131.94 3.96 91.53
-131.76 1.11 91.67
-131.5 -1.71 91.62
-131.31 -4.41 90.89
-131.1 -7.09 90.13
-131.35 -9.7 89.79
-131.55 -12.29 89.33
-131.63 -14.81 88.62
-131.74 -17.34 87.96
-131.85 -19.85 87.19
-132.06 -22.42 86.66
-132.19 -25.02 86.17
-132.25 -27.57 85.48
-132.26 -30.09 84.65
-132.44 -32.72 84.26
-132.56 -35.36 83.72
-132.63 -37.97 83.04
-132.75 -40.58 81.94
-132.83 -43.16 80.72
-132.77 -45.71 79.94
-132.75 -48.3 79.25
-132.77 -50.64 78.12
-132.8 -52.99 77
-132.95 -55.32 76.2
-133.13 -57.69 75.53
-133.33 -60.11 74.69
-133.5 -62.48 73.72
-133.64 -65.09 73
-133.72 -67.59 72.04
-133.86 -69.81 70.74
-134.01 -72.03 69.43
-134.18 -74.44 68.63
-134.35 -76.86 67.84
-134.77 -79.33 66.76
-135.07 -81.54 65.2
-138.04 81.11 79.93
-138.51 83.66 78.64
-137.48 78.45 80.95
-136.81 75.7 81.58
-136.53 73.2 82.68
-136.2 70.85 83.66
-136.01 68.35 84.53
-135.78 65.76 85.17
-135.49 63.19 85.82
-135.19 60.56 86.38
-134.98 57.99 87.45
-134.76 55.37 88.25
-134.53 52.77 88.88
-134 50.11 89.1
-133.65 47.3 89.03
-133.3 44.56 89.42
-133.29 41.92 90.17
-132.89 39.2 91
-132.5 36.43 91.58
-132.05 33.68 92.21
-131.7 30.98 92.36
-131.44 28.31 92.66
-131.04 25.67 93.02
-130.62 23.02 93.01
-130.15 20.36 93.11
-129.82 17.66 93.35
-129.27 14.97 93.05
-128.74 12.27 92.73
-128.4 9.55 92.87
-127.96 6.85 92.86
-127.84 4 93.22
-127.59 1.17 93.17
-127.27 -1.64 92.97
-127.25 -4.36 92.57
-127.15 -7.08 92.07
-127.17 -9.83 91.83
-127.29 -12.38 91.16
-127.29 -14.86 90.23
-127.44 -17.42 89.6
-127.57 -19.97 88.96
-127.76 -22.53 88.35
-127.82 -25.1 87.72
-127.85 -27.64 86.95
-127.95 -30.27 86.46
-128.2 -32.95 86.24
-128.25 -35.54 85.49
-128.5 -38.26 84.8
-128.59 -40.83 83.55
-128.62 -43.36 82.3
-128.5 -45.86 81.36
-128.57 -48.51 80.64
-128.51 -50.96 79.6
-128.63 -53.39 78.68
-128.82 -55.89 78.24
-129.15 -58.39 77.85
-129.06 -60.46 76.29
-128.99 -62.4 74.44
-128.98 -64.79 73.19
-129.01 -67.15 71.96
-128.97 -69.58 70.84
-129.28 -72.05 69.98
-129.48 -74.55 69.36
-130.01 -77.21 68.65
-130.42 -79.71 67.63
-130.79 -82.03 66.21
-133.82 81.84 81.46
-134.36 84.47 80.38
-133.19 79.09 82.22
-132.49 76.28 82.7
-131.95 73.65 83.71
-131.93 71.29 85
-131.87 68.9 86.17
-131.5 66.27 86.57
-131.13 63.64 86.94
-130.87 61.02 87.58
-130.68 58.45 88.47
-130.46 55.86 89.34
-130.18 53.24 90.02
-129.88 50.44 90.31
-129.64 47.69 90.79
-129.42 44.94 91.36
-129.23 42.2 92.03
-128.71 39.37 92.41
-128.45 36.65 93.48
-128.03 33.86 94.03
-127.47 31.03 94.24
-127.19 28.41 94.71
-126.88 25.78 95.12
-126.32 23.16 94.88
-125.8 20.53 94.74
-125.36 17.84 94.64
-124.86 15.16 94.43
-124.49 12.44 94.52
-124.2 9.71 94.8
-123.95 6.88 94.78
-123.68 4.05 94.73
-123.4 1.23 94.62
-123.18 -1.6 94.69
-123.37 -4.41 94.84
-123.31 -7.12 94.32
-123.16 -9.79 93.63
-122.95 -12.42 92.76
-123.09 -14.99 92.12
-123.27 -17.57 91.56
-123.4 -20.13 90.9
-123.5 -22.66 90.14
-123.53 -25.22 89.42
-123.57 -27.78 88.7
-123.68 -30.42 88.22
-123.74 -33.02 87.62
-123.94 -35.69 86.77
-124.14 -38.36 85.91
-124.27 -40.96 84.88
-124.51 -43.67 84.17
-124.44 -46.18 83.04
-124.36 -48.68 81.9
-124.32 -51.14 80.87
-124.34 -53.66 80.01
-124.65 -56.22 79.72
-124.85 -58.64 79.12
-124.76 -60.62 77.46
-124.57 -62.46 75.52
-124.49 -64.69 73.94
-124.51 -67.1 72.74
-124.57 -69.65 71.8
-124.65 -72.26 70.99
-125.14 -74.86 70.13
-125.57 -77.36 69.04
-126.01 -79.84 67.96
-126.39 -82.16 66.58
-129.58 82.52 82.46
-130.23 85.32 82
-128.9 79.77 83.09
-128.4 77.11 83.84
-127.98 74.41 84.96
-127.56 71.77 85.9
-127.33 69.24 86.57
-127.15 66.76 87.43
-126.86 64.14 88.01
-126.52 61.49 88.81
-126.36 58.96 89.84
-126.14 56.38 90.8
-125.97 53.53 91.15
-125.51 50.64 91.5
-125.42 47.93 92.31
-125.22 45.19 93.14
-125.05 42.45 93.81
-124.64 39.66 94.38
-124.31 36.88 95.2
-123.77 34.05 95.42
-123.26 31.23 95.69
-122.78 28.52 96.11
-122.44 25.87 96.38
-121.98 23.27 96.26
-121.42 20.65 96.06
-121.04 17.96 96.08
-120.68 15.29 96.36
-120.38 12.57 96.56
-120.17 9.75 96.72
-119.91 6.93 96.66
-119.55 4.12 96.37
-119.27 1.3 96.28
-119.07 -1.54 96.32
-119.25 -4.36 96.51
-119.22 -7.1 96.08
-119.04 -9.77 95.31
-119 -12.5 94.8
-118.91 -15.21 94.19
-119.08 -17.79 93.59
-119.2 -20.38 92.98
-119.3 -22.91 92.18
-119.31 -25.47 91.43
-119.31 -28 90.63
-119.33 -30.55 89.87
-119.45 -33.15 88.84
-119.6 -35.8 87.91
-119.83 -38.5 87.17
-120.05 -41.2 86.43
-120.26 -43.87 85.57
-120.32 -46.42 84.63
-120.24 -48.94 83.59
-120.24 -51.46 82.7
-120.29 -53.99 81.83
-120.1 -56.26 80.6
-120.22 -58.48 79.45
-120.33 -60.66 78.2
-120.24 -62.81 76.84
-120.26 -65.2 75.6
-120.18 -67.48 74.2
-120.23 -70.02 73.25
-120.52 -72.67 72.16
-120.81 -75.19 70.96
-121.18 -77.58 69.65
-121.52 -79.9 68.24
-121.92 -82.27 66.97
-125.25 83.17 83.41
-125.88 85.88 82.84
-124.6 80.45 83.94
-124.22 77.72 84.75
-123.94 75.09 85.93
-123.46 72.43 86.81
-122.93 69.71 87.46
-122.73 67.14 88.15
-122.59 64.64 89.06
-122.25 62 89.9
-121.95 59.4 90.9
-121.96 56.7 91.92
-121.73 53.8 92.2
-121.47 50.99 93.04
-121.27 48.22 94.07
-121.07 45.45 94.8
-120.88 42.69 95.58
-120.53 39.9 96.26
-120.06 37.06 96.59
-119.52 34.23 96.77
-119.19 31.45 97.53
-118.64 28.71 97.7
-118.07 25.97 97.81
-117.65 23.36 97.86
-117.2 20.75 97.82
-116.76 18.09 97.81
-116.45 15.42 98.16
-116.25 12.62 98.27
-115.94 9.82 98.09
-115.72 7.01 98.16
-115.43 4.19 98.08
-115.24 1.34 98.13
-115.02 -1.5 98.11
-115.03 -4.27 97.86
-115.05 -7.04 97.62
-115.01 -9.78 97.12
-114.91 -12.5 96.46
-114.83 -15.21 95.87
-114.79 -17.94 95.36
-114.95 -20.55 94.79
-115.09 -23.14 94.17
-115.09 -25.69 93.41
-115.09 -28.25 92.66
-115.19 -30.82 91.55
-115.34 -33.43 90.58
-115.56 -36.16 89.86
-115.65 -38.76 88.81
-115.73 -41.32 87.6
-115.89 -43.96 86.62
-115.94 -46.5 85.75
-115.97 -49.02 84.82
-116.06 -51.62 84.1
-116.16 -54.22 83.41
-116 -56.46 81.98
-115.78 -58.59 80.34
-115.73 -60.7 78.9
-115.82 -63.01 77.89
-115.91 -65.56 77.02
-115.85 -67.86 75.66
-116.07 -70.39 74.35
-116.45 -73.24 73.66
-116.73 -75.78 72.45
-116.87 -78.01 70.66
-117.13 -80.1 68.85
-117.46 -82.37 67.36
-120.93 83.58 83.84
-121.35 86.18 83.25
-120.43 80.92 84.76
-120.24 78.29 85.68
-119.85 75.73 86.84
-119.39 73.08 87.68
-118.97 70.39 88.56
-118.52 67.71 89.38
-118.27 65.1 89.93
-117.89 62.43 90.71
-117.77 59.68 91.68
-117.62 56.89 92.64
-117.53 54.11 93.38
-117.25 51.28 94.27
-116.99 48.44 95.07
-116.61 45.56 95.63
-116.37 42.76 96.18
-116.01 39.98 96.85
-115.62 37.17 97.41
-115.23 34.39 98.02
-114.97 31.62 98.96
-114.53 28.91 99.33
-113.9 26.15 99.26
-113.4 23.47 99.53
-113.04 20.85 99.72
-112.61 18.2 99.71
-112.34 15.45 99.77
-112.11 12.66 99.75
-111.7 9.9 99.43
-111.54 7.08 99.65
-111.31 4.26 99.65
-111.1 1.42 99.6
-110.91 -1.42 99.76
-110.84 -4.17 99.3
-110.76 -6.92 98.71
-110.8 -9.71 98.47
-110.76 -12.46 97.96
-110.67 -15.19 97.39
-110.65 -17.93 96.92
-110.56 -20.62 96.27
-110.66 -23.19 95.59
[...]
CELL_DATA 49152
SCALARS Temperature float 1
LOOKUP_TABLE default
303.448
295.202
224.499
241.21
293.833
277.872
92.1688
252.308
262.858
274.032
289.885
261.788
271.613
232.582
263.57
248.842
270.775
310.831
256.716
284.491
202.754
65.1396
74.3164
69.844
34.9334
60.6882
281.439
56.2397
221.009
187.549
39.6554
23.751
32.1541
36.3291
28.2378
41.5367
30.1563
223.862
31.3237
27.0825
23.3237
23.3824
21.6662
25.2247
23.5218
17.5314
19.3907
16.2911
16.3078
7.85101
6.48814
2.15234
10.7705
1.58811
1.23206
1.21737
0.505042
1.1894
1.03783
0.536065
0.283597
0.416123
0.604179
0.563715
0.699528
0.558863
0.0295938
0.0688963
0.0647015
0.0590578
0.059049
0.0546569
0.0563415
0.0408056
0.0529489
0.032612
0.0428076
0.0447086
0.0115891
0.0818414
0.0579363
0.0118091
0.0176448
0.0202112
0.0176068
0.0228108
0.0244768
0.0181212
0.0178686
0.0220641
0.0324808
0.00811286
0.0201012
0.00885567
0.00421435
0.00976656
0.00835136
0.00265925
0.00342689
0.00253503
0.00341163
0.00120724
0.00173962
0.00101128
0.00102616
0.000679297
0.000462011
0.000302028
0.000330042
0.000428022
0.000522015
0.000670305
0.000490528
0.000684729
0.000366223
0.000122183
0.000145612
0.000146905
0.000199497
0.000136128
6.51573e-05
9.181e-05
0.000131895
0.000140256
0.00014814
0.000159586
2.36534e-07
2.65028e-07
306.586
310.524
282.75
229.951
280.797
297.488
193.733
138.793
236.256
263.309
260.572
293.339
308.106
272.866
298.766
262.706
210.084
278.518
262.799
256.871
243.709
185.462
190.461
85.2042
69.4663
254.597
219.63
288.421
175.284
240.98
174.246
83.4575
79.3411
275.055
181.964
203.416
230.638
144.688
57.3928
56.3905
59.7239
251.051
211.93
193.274
11.6377
9.66151
11.4207
0.933217
1.64288
5.0004
1.63166
1.43875
0.303105
0.324577
0.322754
0.66842
0.682801
0.643462
0.583198
0.568052
0.315583
0.425816
0.357619
0.297973
0.0827473
0.0839861
0.0812626
0.073271
0.0800638
0.0396523
0.0574954
0.0178892
0.0155191
0.0343139
0.0150517
0.0471175
0.015393
0.0424119
0.0206468
0.0129784
0.0184016
0.0560332
0.0120846
0.0150301
0.0110701
0.0130259
0.0241065
0.0254962
0.0259056
0.0230836
0.0251519
0.0245941
0.00698943
0.019972
0.00501542
0.00394257
0.00306573
0.00254397
0.00269805
0.00288511
0.00265084
0.00143759
0.00126543
0.000650034
0.000678085
0.000622837
0.000514194
0.000500801
0.000522276
0.000466587
0.000650691
0.000333282
0.000712856
0.000547644
0.000129036
0.000133906
0.000160862
0.000136469
0.000136185
0.000120587
0.000123427
0.000135388
0.000134644
0.00014603
0.000152887
0.0001379
2.19207e-07
2.04286e-07
307.133
305.971
283.705
280.038
236.923
291.966
305.248
177.553
287.807
212.276
270.893
228.858
234.376
299.854
245.483
299.514
241.702
220.97
294.657
251.58
263.955
226.338
238.421
135.967
70.5607
55.0694
78.4098
46.2365
65.9774
159.027
271.272
88.0911
270.735
253.471
207.368
214.866
93.4474
208.614
54.4816
63.0174
255.246
171.795
215.62
184.77
18.2588
1.48306
1.89859
1.30546
1.53877
2.12617
0.871954
0.302632
0.401777
0.363508
0.304041
0.268866
0.371461
0.404416
0.443216
0.536464
0.47043
0.553409
0.496418
0.244836
0.10368
0.343375
0.0800214
0.0331853
0.0696671
0.063855
0.0168256
0.0372216
0.0116673
0.0100174
0.00967096
0.0113811
0.011129
0.010501
0.011865
0.0108203
0.0101698
0.0157958
0.0101815
0.012415
0.0157396
0.0116823
0.020789
0.0270176
0.0201245
0.023061
0.020496
0.0202075
0.00529831
0.00479245
0.00414997
0.00404627
0.0035817
0.00273438
0.00227007
0.00214921
0.00184358
0.00187985
0.00176138
0.00139494
0.00147987
0.00191314
0.00158886
0.0020282
0.000399873
0.000338801
0.000156133
8.34598e-05
0.000103916
5.76419e-05
9.73798e-05
7.50412e-05
8.39823e-05
6.16017e-05
9.60248e-05
0.000104082
0.000145277
0.000109874
0.000149238
0.000167283
0.000144548
0.000144105
1.66501e-07
1.02728e-07
272.276
297.408
238.191
278.476
196.844
235.537
283.085
301.74
320.961
290.177
309.029
274.621
185.141
251.035
191.493
256.891
255.457
241.244
282.62
298.174
281.995
273.665
259.396
255.065
181.538
66.6643
226.698
81.2703
227.08
77.7347
261.603
242.537
250.577
171.04
230.747
279.58
215.748
204.07
37.3207
32.5673
29.7459
29.188
37.0052
173.888
12.2571
3.04072
1.23366
2.35599
0.941449
2.20013
0.790564
0.615536
0.730464
0.477929
0.307407
1.27809
0.400122
0.856401
1.2514
0.531946
0.556044
0.276702
0.329936
0.312563
1.0129
0.445661
0.418036
0.295965
0.0361671
0.0563028
0.015836
0.0112858
0.0141657
0.0108233
0.0132131
0.0124748
0.0116489
0.0119578
0.0138814
0.0117171
0.0575973
0.0479479
0.039863
0.0346511
0.0138366
0.0131801
0.022181
0.0130989
0.0068016
0.00680814
0.00593078
0.00877635
0.00259156
0.00247277
0.0034641
0.00413025
0.00370609
0.00340709
0.00290751
0.00184015
0.00129249
0.00131496
0.00131333
0.001414
0.00175581
0.00198875
0.00195139
0.0015263
0.000124603
0.000115219
0.000106812
9.80029e-05
3.95408e-05
3.84178e-05
3.74698e-05
3.62093e-05
3.73174e-05
3.5656e-05
9.77497e-05
9.90961e-05
0.000104253
9.9751e-05
0.000144712
0.000127807
0.000134759
0.000124963
9.06845e-05
8.33595e-05
163.437
289.295
237.369
259.292
263.753
200.243
288.741
276.509
274.552
321.529
266.874
318.064
293.633
220.784
252.005
206.181
269.865
253.206
295.035
279.916
284.544
275.184
196.356
259.074
184.552
180.798
275.832
219.562
235.781
263.249
245.626
246.556
127.256
203.914
278.016
255.901
210.291
39.4915
38.8568
49.4065
220.38
195.963
209.343
168.971
9.08733
5.51239
1.11918
1.0776
1.06226
0.835525
0.593036
0.89188
1.0754
1.52485
1.27392
1.49145
0.855635
0.923733
0.368893
0.197845
0.264043
0.297442
0.780342
0.287017
0.983735
0.98628
0.213697
0.298069
0.216839
0.134263
0.0463425
0.0782589
0.0146548
0.0155757
0.0159542
0.0162282
0.0189012
0.0168159
0.0772279
0.0747727
0.068259
0.063457
0.0540788
0.0471863
0.0376579
0.0136936
0.00405123
0.00896488
0.00567669
0.00694714
0.00612264
0.00549314
0.00555267
0.00323451
0.00275149
0.00455319
0.00156159
0.00279434
0.00254545
0.0026159
0.00243037
0.0021739
0.00202979
0.00199188
0.00218483
0.000171275
0.000339362
0.000192131
0.000156952
6.1024e-05
3.38105e-05
9.07662e-05
6.72294e-05
6.14927e-05
5.01925e-05
3.66967e-05
3.59783e-05
9.42044e-05
9.79485e-05
8.96993e-05
9.8762e-05
7.4002e-05
8.2098e-05
4.59027e-05
7.93623e-05
9.45687e-06
2.5346e-05
8.10999e-06
238.655
212.2
227.006
243.351
271.334
262.682
302.635
292.346
273.084
281.916
247.906
266.489
268.345
289.717
293.799
247.543
274.303
269.475
289.044
297.393
295.4
288.392
181.994
208.699
272.908
148.254
269.009
279.893
262.978
253.416
248.577
257.895
213.757
232.389
251.925
157.508
55.3203
53.3803
65.2697
245.386
154.853
26.3939
27.0146
2.46677
8.35894
1.35171
1.32107
0.810975
0.971964
0.880552
1.07348
1.12546
1.46268
1.347
0.309039
0.992883
0.123181
0.088566
0.137227
0.338331
0.281603
0.307631
0.326765
0.36612
0.394381
0.828602
0.00241837
0
0.000223377
0.200912
0.182812
0.0441377
0.0161495
0.00924799
0.0234608
0.0212152
0.0516458
0.0594773
0.0562021
0.0688967
0.063853
0.0615944
0.0554312
0.0520869
0.0438064
0.0300762
0.00639552
0.00209887
0.00819182
0.00199786
0.00214232
0.00148908
0.00092734
0.00053819
0.000572711
0.00328468
0.000475428
0.000404415
0.000389901
0.000426631
0.000374983
0.00122549
0.00141901
0.00195276
0.000972306
0.000163031
4.97781e-05
3.83378e-05
3.74061e-05
0.000112469
5.95365e-05
4.24157e-05
9.32652e-05
0.000120461
5.40133e-05
5.14532e-05
9.95365e-05
7.43746e-05
9.27849e-05
0.000112177
7.41289e-05
7.21915e-05
3.05578e-05
2.29481e-05
1.86932e-05
6.92001e-06
7.86853e-06
7.22029e-06
262.097
252.713
289.556
232.035
287.975
268.717
300.313
302.1
271.994
275.598
276.226
240.58
264.211
261.522
241.017
291.603
270.777
279.284
290.826
294.561
289.074
299.035
273.197
179.964
273.809
269.723
288.011
269.606
237.527
269.535
247.451
278.077
265.359
264.632
250.579
199.023
127.035
240.273
260.923
276.908
28.7153
160.118
19.7735
8.49505
7.37283
12.9488
2.04003
10.9204
0.992876
0.927992
1.20745
0.883103
1.24118
0.352844
0.172464
0.153192
0.125291
0.0637867
0.121372
0.0524852
0.0900805
0.146889
0.178858
0.770294
0.000266269
0.000152387
0.0025589
0.0012521
0.0125872
0.00175327
0.00167416
0.00410161
0.00247534
0.00454095
0.00412922
0.0157466
0.00675177
0.00712426
0.00631745
0.00651583
0.00376112
0.00394791
0.00248305
0.00223082
0.00128943
0.0176376
0.0186598
0.00353243
0.00880657
0.00929516
0.00324012
0.00259375
0.00272473
0.000568749
0.000582224
0.000511693
0.000475234
0.000445641
0.000307324
0.000355389
0.00044222
0.000411221
0.000433221
0.00038518
0.000181224
4.29364e-05
5.35885e-05
6.06518e-05
6.52924e-05
6.1235e-05
6.85722e-05
6.45451e-05
0.00011084
6.63631e-05
3.69954e-05
3.7206e-05
3.55414e-05
3.54972e-05
0.000106339
9.6604e-05
5.90431e-05
9.22271e-05
1.88628e-05
1.52714e-05
1.33966e-05
1.20817e-05
8.13558e-06
7.04561e-06
284.442
254.342
282.867
285.107
290.221
290.54
300.47
307.366
290.767
278.724
302.357
276.336
284.77
266.684
225.098
246.757
283.893
264.155
266.209
289.034
276.183
288.283
274.964
270.432
280.581
278.374
249.348
273.733
224.901
246.951
260.924
248.7
261.109
282.797
239.293
253.877
243.633
274.801
276.499
230.426
203.212
207.447
20.724
14.3856
12.4954
5.50729
8.24983
4.4366
0.345613
0.616729
6.34121
5.94439
0.455649
0.268693
0.183032
0.157765
0.0475689
0.101694
0.0751165
0.121838
0.114494
0.128867
0.532934
0.0194692
0.0170174
0.0111059
0.0103103
0.00261009
0.00724555
0.0101691
0.00554312
0.00117397
0.00575104
0.00148666
0.0072207
0.0183242
0.0615044
0.0137389
0.0013924
0.000994052
0.00119404
0.00104928
0.00100062
0.0010441
0.000843884
0.000709856
0.000406099
0.000499929
0.000657061
0.00122999
0.000429215
0.000636808
0.000510013
0.00109367
0.000382576
0.000447719
0.000383005
0.000406274
0.000830353
0.000783716
0.000307976
0.000386207
0.000361994
0.000264618
0.000246103
4.93559e-05
4.87797e-05
7.23458e-05
6.40469e-05
7.11315e-05
6.83543e-05
6.026e-05
5.73622e-05
5.95099e-05
4.30097e-05
4.35468e-05
3.49321e-05
2.12868e-05
3.18583e-05
1.78878e-05
7.33289e-05
1.54778e-05
1.38705e-05
1.31625e-05
1.06028e-05
9.95434e-06
9.78163e-06
1.31368e-05
314.091
267.971
271.989
269.802
247.945
282.503
294.007
293.495
252.396
285.866
245.304
307.986
287.417
298.29
323.204
225.083
297.548
279.623
240.729
267.154
253.8
276.554
269.099
274.009
283.46
279.708
267.879
244.244
273.336
192.672
253.26
236.74
269.72
262.156
241.048
243.91
270.754
265.239
209.125
180.122
185.207
235.491
24.618
33.9152
4.59861
6.41203
3.22343
2.13857
1.92534
2.00063
1.32897
1.29152
0.925106
0.908568
0.610045
0.397392
0.125411
0.256385
0.181436
0.72601
0.12201
0.0973924
0.0101436
0.00315071
0.00400099
0.00413934
0.00234067
0.00271385
0.00301588
0.00313663
0.00166426
0.00148967
0.0029468
0.00255215
0.00271855
0.00618296
0.00976948
0.0316151
0.0319474
0.00650685
0.00352823
0.00231822
0.00247887
0.000648711
0.000589062
0.000767406
0.000586706
0.000341761
0.000449243
0.000615387
0.000912721
0.000977761
0.000823774
0.00148051
0.000943909
0.000344912
0.00061338
0.000644167
0.000631786
0.000758006
0.000746373
0.000326719
0.000111425
0.000120057
2.94035e-05
1.23324e-05
1.30585e-05
3.62176e-05
4.88682e-05
4.39359e-05
4.89552e-05
2.11899e-05
1.77789e-05
3.54103e-05
3.20807e-05
2.53282e-05
1.95663e-05
2.26282e-05
1.53567e-05
1.44304e-05
1.33255e-05
1.45291e-05
1.20246e-05
1.34452e-05
1.13431e-05
1.28843e-05
1.31269e-05
1.12771e-05
297.792
320.106
294.53
289.643
289.018
264.643
283.753
303.861
306.348
258.129
279.645
231.979
276.725
264.18
295.141
314.961
297.214
290.838
248.567
300.878
238.961
286.637
239.772
204.839
262.825
153.935
256.244
261.083
266.074
264.021
244.346
255.133
264.837
264.923
247.979
255.541
265.575
229.067
193.548
235.776
242.989
273.562
140.057
16.356
9.34114
6.44066
2.27429
2.45745
2.04645
12.5812
8.6029
0.65937
1.29448
1.66153
1.34515
1.17453
0.296102
0.337975
0.599003
2.04081
0.185759
0.0441661
0.039218
0.00251798
0.00437632
0.00454078
0.00159224
0.00144997
0.00110242
0.00140868
0.00195179
0.00134223
0.00295619
0.00286888
0.000132433
0.000598055
1.92843e-05
6.04435e-05
4.29938e-05
2.70845e-05
3.39984e-05
0.00268584
0.00275955
0.00309985
0.00232449
0.000743657
0.000505034
0.000450637
0.00120371
0.00101142
0.00166589
0.00194574
0.00249898
0.00176657
0.00158955
0.00134957
0.00138252
0.00129769
0.00135987
0.00135594
0.00131614
0.00106815
0.000781098
0.000124814
6.46583e-05
6.75658e-05
6.03916e-05
5.08352e-05
5.16134e-05
3.84501e-05
3.90798e-05
5.58944e-05
5.21034e-05
4.84431e-05
4.49505e-05
4.04644e-05
3.59548e-05
3.61775e-05
3.26029e-05
2.79953e-05
1.1745e-05
1.94662e-05
1.74228e-05
5.8476e-05
1.85666e-05
1.33656e-05
1.29515e-05
5.52229e-06
298.858
308.1
312.486
297.129
303.328
289.772
323.696
279.19
308.14
296.596
294.905
271.186
276.002
303.793
287.831
280.308
277.768
286.351
298.797
307.628
290.625
281.235
211.036
228.54
91.7419
93.9608
96.4441
259.478
235.451
265.805
263.073
243.685
262.687
223.808
262.318
259.488
229.024
233.007
242.082
237.986
284.083
248.439
171.321
179.107
153.007
3.76904
2.939
10.9448
10.3715
7.78123
6.46216
1.82113
1.86836
2.1751
1.5681
2.2019
12.1289
10.8494
14.1931
9.46948
0.365379
0.308676
0.256548
0.185836
0.1368
0.0225718
0.0300219
0.00161468
0.00165678
0.00172638
0.00176026
0.00195813
0.000870023
0.00256474
0.000829424
0.000410128
3.26469e-05
1.32765e-05
1.04505e-05
7.31646e-06
2.78094e-05
3.12029e-05
3.09685e-05
0.00279045
0.00255381
0.00220608
0.00207198
0.00117749
0.00244841
0.00200775
0.00233612
0.00234169
0.00231127
0.00239704
0.0022682
0.00233555
0.00219943
0.00112576
0.00109948
0.00102638
0.000987903
0.000940352
0.00089065
0.000506645
5.26214e-05
5.39915e-05
5.12902e-05
5.31745e-05
5.28433e-05
5.25245e-05
4.93352e-05
4.9872e-05
4.54643e-05
4.63261e-05
4.34264e-05
4.38143e-05
4.04187e-05
3.86453e-05
3.46316e-05
3.28377e-05
3.52253e-05
1.24962e-05
4.08205e-05
4.62104e-05
1.18849e-05
1.56314e-05
1.34471e-05
9.67312e-06
292.452
321.002
290.571
290.146
276.802
288.224
313.963
316.395
276.681
310.492
303.96
298.235
317.989
334.073
285.389
295.928
291.488
308.238
308.686
300.129
283.564
238.602
250.885
261.467
186.653
286.784
108.4
270.103
195.734
99.6789
97.872
67.6158
195.595
66.8459
246.914
46.9854
229.727
36.4572
234.376
35.3935
236.635
25.3755
26.673
25.0169
16.5536
25.5082
27.4269
21.4733
13.4581
41.5042
38.2115
27.4866
24.1578
21.3443
16.7574
12.0567
9.07968
3.1443
3.79652
2.41307
0.613687
0.901561
0.303036
0.12668
0.0984987
0.0442084
0.0215466
0.0292222
0.0259409
0.00153
0.000727233
0.000124677
2.6379e-05
3.5191e-05
4.13419e-05
6.89076e-05
3.0713e-05
2.5192e-05
1.98473e-05
7.45243e-06
2.20502e-05
2.71152e-05
2.63888e-05
2.66756e-05
2.23521e-05
0.00121977
0.000171369
0.00206902
0.0020368
0.00225027
0.00219169
0.00188138
0.0018701
0.00136283
0.00103589
0.000287565
0.000494004
0.000555096
0.000485673
6.645e-05
5.92331e-05
0.000692712
0.000611954
0.000419009
5.51415e-05
5.33013e-05
3.8224e-05
8.47981e-05
3.95907e-05
4.21615e-05
3.89996e-05
4.09565e-05
3.68956e-05
3.97202e-05
3.74837e-05
3.85228e-05
3.54789e-05
3.18679e-05
2.79043e-05
1.98862e-05
1.20078e-05
7.15776e-06
1.78517e-05
5.74569e-06
3.91511e-06
1.75501e-06
4.3101e-06
9.15795e-06
328.193
326.027
300.266
319.657
278.233
307.593
307.623
292.645
270.789
272.293
294.289
294.09
334.556
319.51
305.35
305.605
322.374
330.523
309.221
284.496
255.005
278.551
271.026
316.394
292.129
327.929
273.663
299.882
105.893
99.8796
101.678
73.4866
66.432
56.6923
47.6113
47.218
46.5895
38.8915
36.4639
29.6441
30.1132
28.8542
21.2891
43.0322
19.8051
53.6024
42.8617
66.3459
62.9488
54.0654
45.1329
42.1033
28.5111
6.33457
3.79517
4.7697
4.01151
4.00866
3.32852
1.14166
2.73467
3.02108
0.384484
2.85536
0.220274
1.84278
0.00143623
0.000497258
0.00012786
0.000162928
4.39603e-05
0.000345751
8.20028e-06
7.41202e-06
7.51982e-06
3.0036e-05
7.29123e-06
3.58607e-05
3.59841e-05
2.45151e-05
3.15122e-05
2.46484e-05
2.66761e-05
2.5223e-05
1.88512e-05
1.65486e-05
4.3607e-05
8.26054e-05
0.000371036
0.000466126
0.00073988
0.000431244
0.000500746
4.25733e-05
1.30514e-07
1.64595e-07
2.38525e-07
0.000605717
0.000542163
0.000648373
0.000604536
0.000111326
2.21592e-05
4.41067e-05
3.66976e-05
2.42913e-05
2.3938e-05
2.57019e-05
2.55932e-05
4.1874e-05
4.00586e-05
3.35449e-05
2.97385e-05
3.21288e-05
3.029e-05
2.89559e-05
2.63912e-05
2.79865e-05
2.462e-05
2.11554e-05
1.61891e-05
9.89889e-06
3.52236e-06
4.81485e-06
2.24436e-06
3.57945e-06
2.18819e-06
6.19415e-06
332.272
343
326.02
340.172
318.894
320.212
296.304
301.72
274.873
297.886
288.139
299.589
306.586
295.188
291.906
287.806
325.891
247.251
291.186
303.056
287.996
317.542
323.967
322.807
345.728
351.357
319.64
314.639
41.4109
27.8093
79.4662
77.9004
57.6871
42.3438
27.8799
28.7888
29.3792
34.7611
27.3399
44.6447
47.7357
47.7868
55.1491
55.1488
56.9997
54.7879
63.5081
48.6805
65.3444
252.461
50.0544
224.938
12.5742
9.49929
8.61628
1.97644
4.54456
4.65326
3.25035
1.71793
3.50609
0.60736
2.90869
0.979806
0.000984153
0.000940838
0.000119858
3.07639e-05
1.46324e-05
9.25155e-05
0.000249657
0.000324827
0.00021632
3.28097e-05
3.37021e-05
2.91575e-05
8.40604e-06
7.78295e-06
1.59352e-05
2.68322e-05
2.50607e-05
3.18774e-05
2.87409e-05
2.95469e-05
1.53854e-05
2.45011e-05
2.37028e-05
2.09706e-05
8.04981e-07
1.00213e-06
7.75635e-07
6.93649e-07
5.21309e-07
3.72314e-07
3.8256e-07
2.12945e-06
1.86387e-07
2.70755e-07
3.89905e-06
2.8606e-06
7.74856e-06
4.7667e-05
3.77377e-05
5.0754e-05
4.59933e-05
8.64541e-06
6.83023e-06
5.58461e-06
5.92068e-06
3.25956e-05
3.42379e-05
1.9972e-05
1.21308e-05
9.78829e-06
1.11524e-05
9.39021e-06
9.32184e-06
1.11034e-05
9.98621e-06
1.98112e-05
1.87374e-05
2.09628e-05
1.01772e-05
3.6168e-06
3.48963e-06
2.81447e-06
3.16677e-06
3.55817e-06
347.29
355.744
346.016
337.349
330.766
326.859
317.91
328.348
316.749
342.422
309.896
324.534
295.31
295.724
286.237
254.183
246.727
212.295
288.761
293.099
313.414
264.892
328.38
303.341
359.293
347.149
328.279
335.383
198.908
69.4602
94.9825
89.3709
54.6897
57.0251
28.9276
27.0811
58.587
46.0384
49.7264
60.0451
57.1033
44.0479
112.077
217.419
166.846
222.566
200.62
217.759
257.824
260.211
240.53
242.565
2.62576
0
0.907699
0.956318
2.37931
0.227936
0.367058
0.0496479
0.193057
0.193425
0.279405
0
0.00153694
0.00133088
0.000201849
8.57801e-05
7.29691e-05
8.48905e-05
0.00020359
0.000316014
0.000226016
0.000347423
0.000363429
0.000174798
3.00118e-05
1.64846e-05
2.4373e-05
2.53885e-05
2.2558e-05
2.52424e-05
1.72678e-05
2.70141e-05
1.01392e-05
1.06568e-05
1.50654e-05
2.08395e-05
1.0217e-06
6.15287e-07
4.44852e-07
4.16187e-07
4.56695e-07
4.48848e-07
4.92198e-07
3.55438e-07
0
0
4.16312e-07
1.71997e-07
2.57073e-07
5.76174e-05
5.90232e-05
1.24634e-05
2.74403e-05
7.7678e-06
5.57226e-06
4.81347e-06
3.34613e-06
5.05385e-06
1.87167e-06
1.69784e-05
1.07065e-05
6.79099e-06
7.82556e-06
9.84707e-06
9.32057e-06
9.51683e-06
8.59668e-06
1.02308e-05
9.94484e-06
2.24057e-05
1.8343e-05
5.62837e-06
5.17831e-06
3.78576e-06
5.82993e-06
7.57989e-06
361.132
350.301
342.717
349.667
330.856
337.582
332.999
339.608
352.153
349.354
342.364
346.567
316.86
315.077
259.595
277.949
296.557
265.355
308.011
286.585
271.978
271.028
300.985
292.982
293.231
348.037
304.313
340.635
281.637
227.462
236.091
114.739
91.5462
280.551
230.759
246.75
72.8675
74.3471
63.6549
222.919
215.425
248.824
214.231
227.555
224.638
219.546
223.93
213.294
264.879
224.644
255.371
232.809
36.6921
169.349
19.2661
14.6626
13.7419
15.7613
11.8052
6.17595
0.131443
0.125648
0.0668641
0.067682
0.0503935
0.00148142
0.00020752
0.0172671
1.90217e-09
4.07651e-07
6.42345e-07
6.79526e-07
8.97077e-07
5.98449e-06
7.62615e-08
0.000378594
0.000246013
6.7583e-06
5.88068e-06
3.27805e-06
1.39472e-05
2.21339e-05
1.43662e-05
1.68066e-05
1.54606e-05
9.19728e-06
2.10759e-05
9.70305e-06
6.47398e-06
2.10134e-06
3.0648e-06
6.60497e-07
5.44107e-07
4.49269e-07
1.42899e-07
4.99929e-07
2.9372e-07
1.95815e-07
1.41104e-08
3.27513e-08
9.53507e-09
3.64148e-08
3.93174e-07
5.20243e-07
5.10237e-07
2.98373e-05
6.78375e-06
5.52794e-06
6.23917e-07
2.30372e-06
1.83437e-07
3.76402e-07
3.33853e-07
1.00686e-05
9.68998e-06
1.01894e-05
1.03563e-05
6.65223e-06
5.08706e-06
1.06543e-06
9.70968e-07
1.0236e-06
1.51845e-06
5.38121e-06
4.03392e-06
9.074e-07
1.37446e-06
2.03582e-06
348.714
335.401
351.808
356.131
340.468
339.689
313.276
348.077
339.932
357.267
355.76
360.158
329.262
351.565
334.223
264.267
311.552