# vtk DataFile Version 3.0
vtk output
ASCII
DATASET POLYDATA
POINTS 24578 float
-151.53 81.83 75.23
-146.76 79.98 77.9
-147.26 82.51 76.57
-151.22 79.35 76.36
-146.3 77.32 78.47
-150.76 76.75 77.01
-146.01 74.82 79.56
-150.4 74.19 77.98
-145.43 72.07 79.86
-149.95 71.56 78.66
-145.02 69.6 80.58
-149.55 69.11 79.46
-144.64 67.21 81.53
-149.14 66.64 80.2
-144.27 64.77 82.34
-148.68 64.12 80.8
-144.06 62.18 83.1
-148.26 61.63 81.51
-143.83 59.57 83.96
-148.2 59.14 82.73
-143.54 56.98 84.63
-148.02 56.58 83.6
-143.3 54.28 84.95
-147.52 53.77 83.62
-142.71 51.53 84.98
-147.03 50.98 83.68
-142.34 49.05 85.71
-146.66 48.52 84.06
-142.24 46.57 86.6
-146.26 46.05 84.34
-145.97 43.63 84.94
-141.82 44.09 87.11
-141.56 41.44 87.04
-145.67 41.21 85.5
-140.98 38.76 87.5
-145.29 38.66 85.7
-140.75 36.16 87.85
-144.89 36.1 85.85
-144.62 33.53 86.3
-140.46 33.57 88.45
-140.13 30.94 88.56
-144.22 30.94 86.41
-143.81 28.2 86.49
-139.84 28.2 88.9
-143.44 25.45 86.68
-139.6 25.51 89.44
-143.18 22.67 87.12
-139.22 22.78 89.44
-142.9 19.88 87.51
-138.79 20.04 89.71
-142.6 17.15 87.83
-138.39 17.32 89.75
-137.91 14.61 89.73
-142.25 14.42 88.03
-141.99 11.68 88.46
-137.6 11.89 89.94
-141.61 8.95 88.57
-137.22 9.16 90.05
-141.13 6.27 88.48
-136.86 6.45 90.3
-140.68 3.58 88.47
-136.37 3.76 90.16
-140.25 0.89 88.51
-135.88 1.07 90.03
-139.71 -1.79 88.26
-135.64 -1.76 90.02
-135.64 -4.55 89.75
-140 -4.44 88.09
-135.69 -7.09 89
-140.34 -7.12 88.03
-135.79 -9.62 88.23
-140.37 -9.69 87.25
-135.84 -12.19 87.54
-140.43 -12.27 86.54
-135.99 -14.75 87
-140.5 -14.79 85.8
-136.21 -17.35 86.64
-140.62 -17.33 85.19
-136.42 -19.93 86.21
-140.85 -19.94 84.82
-136.49 -22.42 85.34
-140.79 -22.34 83.7
-136.45 -24.91 84.43
-140.78 -24.79 82.73
-136.55 -27.44 83.74
-140.84 -27.3 81.99
-136.57 -29.97 82.98
-140.97 -29.86 81.42
-136.73 -32.54 82.43
-141.02 -32.36 80.63
-136.76 -35.12 81.64
-141.09 -34.97 79.94
-141.32 -37.69 79.69
-136.83 -37.72 80.96
-141.45 -40.33 79.13
-136.9 -40.34 80.32
-137.11 -43 79.41
-141.48 -42.91 78.35
-141.57 -45.38 77.61
-137.04 -45.54 78.64
-141.59 -47.8 76.7
-137.03 -47.91 77.56
-141.86 -50.43 76.49
-137.15 -50.39 76.9
-141.9 -52.84 75.63
-137.27 -52.84 76.11
-141.91 -55.11 74.4
-137.53 -55.19 75.26
-137.48 -57.49 74.21
-141.9 -57.35 73.07
-142.03 -59.74 72.14
-137.7 -59.92 73.43
-142.25 -62.22 71.44
-137.97 -62.48 72.92
-142.57 -64.67 70.67
-138.15 -65.14 72.4
-142.87 -67.1 69.86
-138.34 -67.41 71.12
-143.16 -69.56 69.09
-138.58 -69.8 70.17
-143.42 -71.97 68.22
-138.72 -72 68.84
-143.42 -74.03 66.78
-138.71 -74.17 67.59
-143.52 -76.26 65.69
-138.9 -76.5 66.65
-143.64 -78.59 64.8
-139.03 -78.91 65.88
-143.64 -80.66 63.43
-139.36 -81.09 64.3
-142.41 80.53 78.87
-142.88 83.09 77.59
-141.83 77.87 79.86
-141.49 75.33 80.8
-140.97 72.61 81.19
-140.47 70.13 81.77
-140.01 67.69 82.47
-139.94 65.21 83.59
-139.84 62.72 84.64
-139.44 60.04 85.13
-139.12 57.42 85.86
-138.88 54.8 86.42
-138.56 52.14 86.78
-138.19 49.56 87.25
-137.83 46.99 87.76
-137.58 44.31 88.01
-137.31 41.63 88.23
-137.03 38.95 89.21
-136.57 36.22 89.77
-136.22 33.57 90.06
-135.88 30.91 90.36
-135.74 28.24 91.1
-135.47 25.56 91.56
-134.94 22.88 91.41
-134.47 20.19 91.43
-134.08 17.49 91.57
-133.61 14.8 91.52
-133.09 12.1 91.2
-132.71 9.37 91.23
-132.3 6.67 91.32
-131.94 3.96 91.53
-131.76 1.11 91.67
-131.5 -1.71 91.62
-131.31 -4.41 90.89
-131.1 -7.09 90.13
-131.35 -9.7 89.79
-131.55 -12.29 89.33
-131.63 -14.81 88.62
-131.74 -17.34 87.96
-131.85 -19.85 87.19
-132.06 -22.42 86.66
-132.19 -25.02 86.17
-132.25 -27.57 85.48
-132.26 -30.09 84.65
-132.44 -32.72 84.26
-132.56 -35.36 83.72
-132.63 -37.97 83.04
-132.75 -40.58 81.94
-132.83 -43.16 80.72
-132.77 -45.71 79.94
-132.75 -48.3 79.25
-132.77 -50.64 78.12
-132.8 -52.99 77
-132.95 -55.32 76.2
-133.13 -57.69 75.53
-133.33 -60.11 74.69
-133.5 -62.48 73.72
-133.64 -65.09 73
-133.72 -67.59 72.04
-133.86 -69.81 70.74
-134.01 -72.03 69.43
-134.18 -74.44 68.63
-134.35 -76.86 67.84
-134.77 -79.33 66.76
-135.07 -81.54 65.2
-138.04 81.11 79.93
-138.51 83.66 78.64
-137.48 78.45 80.95
-136.81 75.7 81.58
-136.53 73.2 82.68
-136.2 70.85 83.66
-136.01 68.35 84.53
-135.78 65.76 85.17
-135.49 63.19 85.82
-135.19 60.56 86.38
-134.98 57.99 87.45
-134.76 55.37 88.25
-134.53 52.77 88.88
-134 50.11 89.1
-133.65 47.3 89.03
-133.3 44.56 89.42
-133.29 41.92 90.17
-132.89 39.2 91
-132.5 36.43 91.58
-132.05 33.68 92.21
-131.7 30.98 92.36
-131.44 28.31 92.66
-131.04 25.67 93.02
-130.62 23.02 93.01
-130.15 20.36 93.11
-129.82 17.66 93.35
-129.27 14.97 93.05
-128.74 12.27 92.73
-128.4 9.55 92.87
-127.96 6.85 92.86
-127.84 4 93.22
-127.59 1.17 93.17
-127.27 -1.64 92.97
-127.25 -4.36 92.57
-127.15 -7.08 92.07
-127.17 -9.83 91.83
-127.29 -12.38 91.16
-127.29 -14.86 90.23
-127.44 -17.42 89.6
-127.57 -19.97 88.96
-127.76 -22.53 88.35
-127.82 -25.1 87.72
-127.85 -27.64 86.95
-127.95 -30.27 86.46
-128.2 -32.95 86.24
-128.25 -35.54 85.49
-128.5 -38.26 84.8
-128.59 -40.83 83.55
-128.62 -43.36 82.3
-128.5 -45.86 81.36
-128.57 -48.51 80.64
-128.51 -50.96 79.6
-128.63 -53.39 78.68
-128.82 -55.89 78.24
-129.15 -58.39 77.85
-129.06 -60.46 76.29
-128.99 -62.4 74.44
-128.98 -64.79 73.19
-129.01 -67.15 71.96
-128.97 -69.58 70.84
-129.28 -72.05 69.98
-129.48 -74.55 69.36
-130.01 -77.21 68.65
-130.42 -79.71 67.63
-130.79 -82.03 66.21
-133.82 81.84 81.46
-134.36 84.47 80.38
-133.19 79.09 82.22
-132.49 76.28 82.7
-131.95 73.65 83.71
-131.93 71.29 85
-131.87 68.9 86.17
-131.5 66.27 86.57
-131.13 63.64 86.94
-130.87 61.02 87.58
-130.68 58.45 88.47
-130.46 55.86 89.34
-130.18 53.24 90.02
-129.88 50.44 90.31
-129.64 47.69 90.79
-129.42 44.94 91.36
-129.23 42.2 92.03
-128.71 39.37 92.41
-128.45 36.65 93.48
-128.03 33.86 94.03
-127.47 31.03 94.24
-127.19 28.41 94.71
-126.88 25.78 95.12
-126.32 23.16 94.88
-125.8 20.53 94.74
-125.36 17.84 94.64
-124.86 15.16 94.43
-124.49 12.44 94.52
-124.2 9.71 94.8
-123.95 6.88 94.78
-123.68 4.05 94.73
-123.4 1.23 94.62
-123.18 -1.6 94.69
-123.37 -4.41 94.84
-123.31 -7.12 94.32
-123.16 -9.79 93.63
-122.95 -12.42 92.76
-123.09 -14.99 92.12
-123.27 -17.57 91.56
-123.4 -20.13 90.9
-123.5 -22.66 90.14
-123.53 -25.22 89.42
-123.57 -27.78 88.7
-123.68 -30.42 88.22
-123.74 -33.02 87.62
-123.94 -35.69 86.77
-124.14 -38.36 85.91
-124.27 -40.96 84.88
-124.51 -43.67 84.17
-124.44 -46.18 83.04
-124.36 -48.68 81.9
-124.32 -51.14 80.87
-124.34 -53.66 80.01
-124.65 -56.22 79.72
-124.85 -58.64 79.12
-124.76 -60.62 77.46
-124.57 -62.46 75.52
-124.49 -64.69 73.94
-124.51 -67.1 72.74
-124.57 -69.65 71.8
-124.65 -72.26 70.99
-125.14 -74.86 70.13
-125.57 -77.36 69.04
-126.01 -79.84 67.96
-126.39 -82.16 66.58
-129.58 82.52 82.46
-130.23 85.32 82
-128.9 79.77 83.09
-128.4 77.11 83.84
-127.98 74.41 84.96
-127.56 71.77 85.9
-127.33 69.24 86.57
-127.15 66.76 87.43
-126.86 64.14 88.01
-126.52 61.49 88.81
-126.36 58.96 89.84
-126.14 56.38 90.8
-125.97 53.53 91.15
-125.51 50.64 91.5
-125.42 47.93 92.31
-125.22 45.19 93.14
-125.05 42.45 93.81
-124.64 39.66 94.38
-124.31 36.88 95.2
-123.77 34.05 95.42
-123.26 31.23 95.69
-122.78 28.52 96.11
-122.44 25.87 96.38
-121.98 23.27 96.26
-121.42 20.65 96.06
-121.04 17.96 96.08
-120.68 15.29 96.36
-120.38 12.57 96.56
-120.17 9.75 96.72
-119.91 6.93 96.66
-119.55 4.12 96.37
-119.27 1.3 96.28
-119.07 -1.54 96.32
-119.25 -4.36 96.51
-119.22 -7.1 96.08
-119.04 -9.77 95.31
-119 -12.5 94.8
-118.91 -15.21 94.19
-119.08 -17.79 93.59
-119.2 -20.38 92.98
-119.3 -22.91 92.18
-119.31 -25.47 91.43
-119.31 -28 90.63
-119.33 -30.55 89.87
-119.45 -33.15 88.84
-119.6 -35.8 87.91
-119.83 -38.5 87.17
-120.05 -41.2 86.43
-120.26 -43.87 85.57
-120.32 -46.42 84.63
-120.24 -48.94 83.59
-120.24 -51.46 82.7
-120.29 -53.99 81.83
-120.1 -56.26 80.6
-120.22 -58.48 79.45
-120.33 -60.66 78.2
-120.24 -62.81 76.84
-120.26 -65.2 75.6
-120.18 -67.48 74.2
-120.23 -70.02 73.25
-120.52 -72.67 72.16
-120.81 -75.19 70.96
-121.18 -77.58 69.65
-121.52 -79.9 68.24
-121.92 -82.27 66.97
-125.25 83.17 83.41
-125.88 85.88 82.84
-124.6 80.45 83.94
-124.22 77.72 84.75
-123.94 75.09 85.93
-123.46 72.43 86.81
-122.93 69.71 87.46
-122.73 67.14 88.15
-122.59 64.64 89.06
-122.25 62 89.9
-121.95 59.4 90.9
-121.96 56.7 91.92
-121.73 53.8 92.2
-121.47 50.99 93.04
-121.27 48.22 94.07
-121.07 45.45 94.8
-120.88 42.69 95.58
-120.53 39.9 96.26
-120.06 37.06 96.59
-119.52 34.23 96.77
-119.19 31.45 97.53
-118.64 28.71 97.7
-118.07 25.97 97.81
-117.65 23.36 97.86
-117.2 20.75 97.82
-116.76 18.09 97.81
-116.45 15.42 98.16
-116.25 12.62 98.27
-115.94 9.82 98.09
-115.72 7.01 98.16
-115.43 4.19 98.08
-115.24 1.34 98.13
-115.02 -1.5 98.11
-115.03 -4.27 97.86
-115.05 -7.04 97.62
-115.01 -9.78 97.12
-114.91 -12.5 96.46
-114.83 -15.21 95.87
-114.79 -17.94 95.36
-114.95 -20.55 94.79
-115.09 -23.14 94.17
-115.09 -25.69 93.41
-115.09 -28.25 92.66
-115.19 -30.82 91.55
-115.34 -33.43 90.58
-115.56 -36.16 89.86
-115.65 -38.76 88.81
-115.73 -41.32 87.6
-115.89 -43.96 86.62
-115.94 -46.5 85.75
-115.97 -49.02 84.82
-116.06 -51.62 84.1
-116.16 -54.22 83.41
-116 -56.46 81.98
-115.78 -58.59 80.34
-115.73 -60.7 78.9
-115.82 -63.01 77.89
-115.91 -65.56 77.02
-115.85 -67.86 75.66
-116.07 -70.39 74.35
-116.45 -73.24 73.66
-116.73 -75.78 72.45
-116.87 -78.01 70.66
-117.13 -80.1 68.85
-117.46 -82.37 67.36
-120.93 83.58 83.84
-121.35 86.18 83.25
-120.43 80.92 84.76
-120.24 78.29 85.68
-119.85 75.73 86.84
-119.39 73.08 87.68
-118.97 70.39 88.56
-118.52 67.71 89.38
-118.27 65.1 89.93
-117.89 62.43 90.71
-117.77 59.68 91.68
-117.62 56.89 92.64
-117.53 54.11 93.38
-117.25 51.28 94.27
-116.99 48.44 95.07
-116.61 45.56 95.63
-116.37 42.76 96.18
-116.01 39.98 96.85
-115.62 37.17 97.41
-115.23 34.39 98.02
-114.97 31.62 98.96
-114.53 28.91 99.33
-113.9 26.15 99.26
-113.4 23.47 99.53
-113.04 20.85 99.72
-112.61 18.2 99.71
-112.34 15.45 99.77
-112.11 12.66 99.75
-111.7 9.9 99.43
-111.54 7.08 99.65
-111.31 4.26 99.65
-111.1 1.42 99.6
-110.91 -1.42 99.76
-110.84 -4.17 99.3
-110.76 -6.92 98.71
-110.8 -9.71 98.47
-110.76 -12.46 97.96
-110.67 -15.19 97.39
-110.65 -17.93 96.92
-110.56 -20.62 96.27
-110.66 -23.19 95.59
[...]
CELL_DATA 49152
SCALARS Temperature float 1
LOOKUP_TABLE default
1.78408
1.64806
1.96678
1.06301
1.13012
0.859888
1.78747
1.77896
1.74456
2.15906
1.99952
1.91803
1.79704
1.45136
0.423768
0.495589
0.495093
1.34207
2.11583
2.43424
2.30553
1.75406
0.32667
0.268551
0.303908
0.271097
0.348847
0.346142
0.379383
0.328951
0.2372
0.237019
0.109596
0.117031
0.178142
0.17116
0.220435
0.242222
0.152115
0.145185
0.115209
0.205048
0.17267
0.224934
0.204359
0.0765312
0.173028
0.133024
0.146766
0.0170871
0.0239576
0.0208682
0.110521
0.00302329
0.00180061
0.00176832
0.000481788
0.00172893
0.0055681
0.000533853
0.000295454
0.000388709
0.000414648
0.000536681
0.00164636
0.00135139
3.66511e-05
8.91408e-05
7.76385e-05
7.12825e-05
7.06918e-05
6.57786e-05
6.69396e-05
4.99858e-05
6.23673e-05
4.01522e-05
5.05291e-05
5.27497e-05
9.21057e-06
7.30701e-05
5.15283e-05
1.04103e-05
1.57959e-05
1.81191e-05
1.57866e-05
2.04689e-05
2.19549e-05
1.62423e-05
1.60052e-05
1.97613e-05
2.9701e-05
7.06783e-06
1.91634e-05
7.86106e-06
3.9241e-06
1.06208e-05
1.07319e-05
2.65006e-06
3.47404e-06
2.56726e-06
3.05513e-06
1.15817e-06
1.53371e-06
9.63732e-07
9.3449e-07
6.60129e-07
4.77549e-07
3.13158e-07
3.39302e-07
4.1898e-07
4.97448e-07
6.37389e-07
4.63572e-07
6.40971e-07
3.34707e-07
1.01894e-07
1.25909e-07
1.60759e-07
2.00947e-07
6.67742e-07
7.33827e-07
5.08068e-07
3.96941e-07
2.54156e-07
2.45428e-07
2.41063e-07
1.38919e-07
1.50272e-07
1.58555
1.64657
2.88759
2.39781
1.03882
1.4416
2.62647
0.627737
0.501923
0.491862
0.453725
0.499456
0.483445
1.96325
1.40118
0.507254
1.57837
2.14554
2.16755
2.06584
0.148513
0.35693
0.309294
0.428331
0.433471
0.307267
0.529543
1.90124
1.92602
2.08426
0.112123
0.145625
0.0757193
0.133972
0.185226
0.220843
0.231528
0.0447276
0.0538948
0.0513028
0.130891
0.226264
0.230689
0.205214
0.0188907
0.00877167
0.0113656
0.00521182
0.00236091
0.0121095
0.0120067
0.0129215
0.000601234
0.00138936
0.00129834
0.00162389
0.00175032
0.00128953
0.000950653
0.00127199
0.000480678
0.00130621
0.000812592
0.000305784
0.000180173
0.000147237
9.58037e-05
8.71967e-05
9.23881e-05
4.83752e-05
6.70049e-05
1.9522e-05
1.69795e-05
4.40248e-05
1.76976e-05
5.75101e-05
1.85466e-05
5.38844e-05
2.28621e-05
1.25255e-05
2.03911e-05
4.9835e-05
1.07728e-05
1.34435e-05
9.85744e-06
1.16624e-05
2.16187e-05
2.32875e-05
2.36672e-05
2.07104e-05
2.25693e-05
2.20766e-05
6.37114e-06
1.79276e-05
4.84676e-06
3.82643e-06
3.12819e-06
2.6709e-06
2.78456e-06
3.05963e-06
2.81224e-06
1.45586e-06
1.42203e-06
6.89126e-07
6.79378e-07
6.59875e-07
5.43469e-07
5.20734e-07
5.06144e-07
4.46655e-07
6.19668e-07
3.42247e-07
6.82303e-07
5.71254e-07
5.55321e-07
3.48935e-07
3.6004e-07
6.05834e-07
5.87529e-07
4.62892e-07
4.73926e-07
2.52024e-07
2.2349e-07
2.0831e-07
2.07406e-07
2.54387e-07
1.85548e-07
1.58671e-07
1.44539
1.45117
2.22631
2.39686
3.48761
3.70804
3.29644
1.34628
0.439327
0.594821
0.525541
0.518209
0.545421
0.475728
0.982961
1.77918
2.65633
2.3998
1.81081
0.502482
0.610475
0.449403
0.425647
0.430468
0.45205
0.401211
0.415863
0.212671
0.207161
0.295314
0.327462
0.304393
0.364528
0.357621
0.24552
0.260319
0.144817
0.261126
0.181764
0.117704
0.213739
0.0281276
0.0649536
0.0315415
0.0187534
0.0105363
0.0019676
0.00147326
0.00171871
0.00228128
0.00877834
0.00185099
0.000854004
0.000771056
0.000662423
0.00122265
0.00105923
0.000959202
0.00118709
0.00251024
0.00237825
0.00167011
0.00145457
0.000595367
0.000130372
0.000210882
9.23322e-05
3.75912e-05
7.00373e-05
6.69613e-05
1.88468e-05
2.71401e-05
1.28179e-05
1.09171e-05
1.06201e-05
1.20967e-05
1.13977e-05
1.10986e-05
1.2175e-05
1.10816e-05
9.88306e-06
1.94133e-05
9.18016e-06
1.41432e-05
1.87366e-05
1.04947e-05
2.10155e-05
2.61857e-05
1.8056e-05
2.06996e-05
1.84063e-05
1.81372e-05
4.96106e-06
4.52786e-06
4.02522e-06
3.94388e-06
3.51842e-06
2.73564e-06
2.42231e-06
2.29663e-06
1.93074e-06
1.95139e-06
1.88274e-06
1.55734e-06
1.65873e-06
2.13697e-06
1.78523e-06
2.25234e-06
3.38283e-07
3.19818e-07
1.73985e-07
2.65809e-07
2.70432e-07
3.40783e-07
5.66607e-07
5.06147e-07
6.75092e-07
3.58986e-07
3.50467e-07
3.33049e-07
3.31481e-07
3.3148e-07
6.49122e-07
5.12758e-07
4.71686e-07
4.05358e-07
4.28588e-07
8.55263e-08
1.32958
1.33372
2.74208
1.56399
3.47827
3.09891
2.54203
2.58923
3.25242
2.00137
2.77142
0.929423
1.81338
2.02776
2.67002
2.88419
2.9907
2.70359
2.49075
3.03501
2.60531
2.58873
2.45623
2.35473
2.32462
2.11107
2.11582
0.341749
0.295228
0.347921
0.405653
0.371115
0.362821
0.107381
0.101963
0.3793
0.258643
0.208033
0.0522412
0.0358291
0.125966
0.17824
0.132859
0.180835
0.0115846
0.00568878
0.00128164
0.00226798
0.00097151
0.00223673
0.00131677
0.00116831
0.00136095
0.00089143
0.00100356
0.00291523
0.000949775
0.00109628
0.0036327
0.00190469
0.00187818
0.000687023
0.000802729
0.00066525
0.00367835
0.000555466
0.000535499
0.000180689
2.82389e-05
5.74266e-05
1.51058e-05
1.04042e-05
1.29387e-05
1.18544e-05
1.34458e-05
1.3399e-05
1.23493e-05
1.26411e-05
1.31503e-05
1.17002e-05
5.14079e-05
4.2653e-05
3.54576e-05
3.08221e-05
1.28176e-05
1.22586e-05
2.39169e-05
1.52399e-05
6.09109e-06
6.09887e-06
5.30923e-06
7.86496e-06
2.31216e-06
2.41918e-06
3.10359e-06
4.00637e-06
3.61814e-06
3.35056e-06
2.90632e-06
1.87176e-06
1.35574e-06
1.36524e-06
1.37759e-06
1.50482e-06
1.90955e-06
2.15296e-06
2.11801e-06
1.59032e-06
4.41117e-07
2.25644e-07
2.69239e-07
2.67845e-07
1.33259e-07
1.16027e-07
1.24533e-07
1.19244e-07
1.3874e-07
1.39514e-07
2.9382e-07
3.00944e-07
3.12035e-07
3.29385e-07
3.51461e-07
1.11832e-06
1.23028e-06
1.36017e-06
1.93628e-06
1.93764e-06
10.8031
6.60032
12.0885
10.4579
9.33289
3.72946
2.92423
2.30077
2.22249
3.60599
4.3216
5.48888
5.43478
4.29676
4.21029
3.49096
3.2547
2.80503
2.69479
2.01046
2.00529
1.53842
2.17458
2.50881
2.48396
2.39899
2.42032
1.70351
1.68029
0.553305
0.40522
0.384785
0.125149
0.258104
0.378463
0.308443
0.154741
0.347355
0.997501
0.303623
1.38011
0.127102
0.120821
0.0563689
0.0619216
0.0119127
0.00149739
0.00157922
0.00168345
0.00141576
0.00147474
0.00493512
0.00332347
0.00529897
0.00489848
0.00510614
0.00262949
0.00100386
0.000689982
0.000571805
0.00065805
0.000684627
0.000887409
0.000793493
0.00392509
0.00408918
0.00025264
0.000388545
0.000282079
8.50323e-05
5.06062e-05
7.09523e-05
1.44563e-05
1.51705e-05
1.5221e-05
1.54736e-05
2.1762e-05
1.67898e-05
6.91657e-05
6.69233e-05
6.10392e-05
5.66407e-05
4.81014e-05
4.19744e-05
3.34999e-05
1.25645e-05
3.60706e-06
8.02169e-06
5.06671e-06
6.21395e-06
5.46946e-06
4.91438e-06
4.96498e-06
3.07052e-06
2.58832e-06
4.07277e-06
1.59629e-06
2.75297e-06
2.51959e-06
2.61401e-06
2.44624e-06
2.29964e-06
2.18004e-06
2.14242e-06
2.3592e-06
1.77715e-07
3.18498e-07
2.74409e-07
4.41341e-07
5.21269e-07
2.64743e-07
1.91203e-07
1.39601e-07
1.60969e-07
1.6402e-07
1.37763e-07
1.41432e-07
1.53693e-07
1.75378e-07
2.14225e-07
2.37157e-07
1.68188e-07
1.91935e-07
1.74904e-07
9.97724e-07
1.42788e-06
1.56097e-06
1.5238e-06
16.1933
15.535
15.0867
13.7323
12.0243
10.3689
5.58557
3.54161
3.51408
3.72465
4.27369
4.42346
4.27984
4.63758
4.67393
3.67766
3.56252
3.2976
3.37924
3.62239
3.46935
3.0752
2.98969
2.93209
2.84882
1.7778
1.56992
0.719863
0.570286
1.16638
0.353418
0.432763
0.216504
0.29592
0.318698
1.34805
0.395686
0.447233
1.19369
0.325929
0.171741
0.0133398
0.0209472
0.0530631
0.0191091
0.00763015
0.00602824
0.00487056
0.00589228
0.00549997
0.00664801
0.00704775
0.00605154
0.00586199
0.00123291
0.00502476
0.00362071
0.00274462
0.00048154
0.000661569
0.000564876
0.000523454
0.000756962
0.000681793
0.000450981
0.000882216
5.42421e-05
0
7.86517e-06
0.000117683
9.83905e-05
3.83899e-05
1.44796e-05
8.5968e-06
2.38038e-05
2.2596e-05
4.65759e-05
5.34102e-05
5.04332e-05
6.17058e-05
5.71557e-05
5.50852e-05
4.9502e-05
4.635e-05
3.89625e-05
2.6752e-05
5.69219e-06
1.86156e-06
7.31983e-06
1.81814e-06
2.10758e-06
1.23536e-06
7.68272e-07
4.73632e-07
5.06902e-07
2.93221e-06
4.46201e-07
3.80752e-07
3.69379e-07
4.60668e-07
3.66643e-07
1.28505e-06
1.47118e-06
2.0051e-06
1.05469e-06
1.79389e-07
1.60502e-07
9.10203e-08
1.35662e-07
1.36204e-07
1.3018e-07
9.04618e-08
1.38335e-07
1.42823e-07
1.72238e-07
1.72745e-07
1.56375e-07
2.15084e-07
2.72089e-07
2.25469e-07
2.25234e-07
2.56439e-07
4.02129e-07
2.49453e-07
4.52682e-07
1.14767e-06
1.24608e-06
1.50397e-06
19.0454
18.4814
16.5595
16.5486
5.12522
4.45131
4.6788
4.5336
4.32058
4.2911
4.40439
3.78359
3.41876
3.33118
3.74757
4.26403
4.34365
4.30689
4.19359
4.13796
4.01066
4.09214
3.81878
2.86043
2.86663
2.70294
2.69388
3.02406
2.93481
3.05435
3.00988
3.12223
2.99389
2.9806
2.80027
2.4225
2.17394
2.03772
2.03358
1.96175
0.00234662
0.00889365
0.00996479
0.0626618
0.0149384
0.0117741
0.00547351
0.00731882
0.00619898
0.00573796
0.00718974
0.00475853
0.00590295
0.00374818
0.00520181
0.00483252
0.00403571
0.00184757
0.000730931
0.00128168
0.00155717
0.00129965
0.00140955
0.00389547
5.94455e-06
3.40194e-06
1.85748e-05
3.91171e-05
1.84246e-05
2.40357e-05
1.8788e-06
3.747e-06
2.51491e-06
4.13838e-06
3.88567e-06
1.52104e-05
6.09017e-06
6.42661e-06
5.6997e-06
5.87371e-06
3.38691e-06
3.55497e-06
2.24762e-06
2.00702e-06
1.17593e-06
1.56874e-05
1.65955e-05
3.06203e-06
7.94383e-06
8.41983e-06
3.04436e-06
2.44326e-06
2.59821e-06
5.16522e-07
5.44394e-07
4.75488e-07
4.44987e-07
4.18241e-07
2.91519e-07
3.35453e-07
4.16245e-07
3.88591e-07
4.07901e-07
3.64619e-07
1.75803e-07
1.43301e-07
1.57071e-07
1.66444e-07
1.36688e-07
1.57896e-07
1.39544e-07
1.17242e-07
1.301e-07
1.2525e-07
3.09293e-07
2.90468e-07
2.57427e-07
3.73774e-07
4.7621e-07
5.99192e-07
6.45886e-07
4.12797e-07
8.3885e-07
9.40439e-07
1.06195e-06
1.11317e-06
1.1492e-06
1.34012e-06
18.6724
18.8848
6.02333
6.0403
5.88016
5.89161
5.80656
6.02612
6.13018
5.80563
5.7738
4.69886
4.73825
4.03289
4.59781
4.5225
4.30908
3.83394
3.85163
3.98092
3.93205
3.9088
3.60863
3.46455
3.42711
3.31573
3.40324
3.42249
3.41162
3.3702
3.32467
3.12007
2.9982
2.86459
2.51252
2.40285
2.19436
2.06233
1.95876
1.72325
1.51137
1.20982
0.737675
0.0685083
0.081829
0.107314
0.0881009
0.0972803
0.00503977
0.00899774
0.00484056
0.0040514
0.0127556
0.00758147
0.00574384
0.00508015
0.0016102
0.00262984
0.00144066
0.000709615
0.000504803
0.000326894
0.00190171
4.76876e-05
3.64432e-05
4.16969e-05
1.87493e-05
1.37215e-05
1.10679e-05
1.49266e-05
8.53973e-06
1.69481e-06
9.06027e-06
1.88256e-06
9.80771e-06
2.02539e-05
5.51942e-05
1.56948e-05
1.41014e-06
8.64625e-07
1.03949e-06
9.14155e-07
8.73217e-07
9.11295e-07
7.39616e-07
6.22558e-07
3.70997e-07
4.44092e-07
5.78272e-07
1.09563e-06
4.04433e-07
7.11247e-07
5.52112e-07
1.21573e-06
3.60122e-07
4.14853e-07
3.51984e-07
3.7596e-07
9.43625e-07
8.89726e-07
2.90871e-07
3.67247e-07
3.43418e-07
2.56426e-07
2.38482e-07
9.52356e-08
1.14618e-07
1.79434e-07
1.37478e-07
1.66636e-07
1.90397e-07
1.46835e-07
1.82145e-07
1.40147e-07
2.23523e-07
1.81899e-07
2.96087e-07
1.6724e-07
5.02115e-07
7.60938e-07
9.52774e-07
1.29736e-06
1.65698e-06
1.43402e-06
1.60458e-06
1.31933e-06
1.18714e-06
6.09785e-07
7.5248
13.7037
13.0016
5.10612
4.77309
4.71912
4.56031
4.52977
5.39398
5.6328
6.33715
6.8504
6.53085
6.73768
5.77495
4.80363
4.10722
3.73607
3.5785
4.11379
3.5221
3.98316
3.74509
3.64363
3.79218
3.62805
3.76664
3.44066
3.48385
2.6933
2.7595
2.3947
2.42274
2.37754
2.02191
1.83792
1.86772
1.49521
0.949794
0.760653
0.748645
0.807711
0.180574
0.230464
0.137619
0.0939304
0.101834
0.104239
0.091523
0.0914915
0.0621001
0.0521086
0.025872
0.0254123
0.0170995
0.0112723
0.0034245
0.00651683
0.00132944
0.00549253
0.000370174
0.000252571
2.56186e-05
1.54099e-05
1.0181e-05
1.05249e-05
1.28809e-05
9.56591e-06
8.54061e-06
8.53196e-06
4.49258e-06
3.97938e-06
8.05636e-06
6.93105e-06
7.38938e-06
1.19966e-05
0.000346638
2.83615e-05
2.86344e-05
6.05307e-06
3.25075e-06
2.08885e-06
2.24693e-06
5.84808e-07
5.35902e-07
6.76339e-07
5.22839e-07
3.12447e-07
4.00539e-07
5.43906e-07
9.74051e-07
1.04958e-06
8.37338e-07
1.41432e-06
1.07199e-06
3.32324e-07
6.9226e-07
7.2638e-07
7.14967e-07
8.61031e-07
8.26286e-07
2.93698e-07
9.3392e-08
1.11872e-07
2.91359e-08
2.30899e-08
6.02594e-08
4.04406e-08
9.84453e-08
1.04138e-07
4.41532e-07
4.33503e-07
4.95783e-07
4.1787e-07
4.77329e-07
4.59619e-07
3.09871e-07
3.35932e-07
3.64992e-07
2.62089e-07
4.1578e-07
4.22132e-07
9.71316e-07
1.15579e-06
1.35485e-06
1.65269e-06
1.48221e-06
1.75996e-06
8.01256
14.1776
133.997
8.80898
8.70236
7.81568
7.71824
7.84049
8.10416
6.63309
6.27331
5.10677
4.00018
3.90949
3.53179
3.78756
4.21058
4.39332
4.30156
3.36591
1.92319
4.48609
2.27112
2.94455
2.42331
3.99672
3.59415
3.67176
3.34862
3.36144
2.92126
2.85055
2.54687
1.97402
1.68972
1.1095
1.14035
1.20206
1.16113
1.32892
1.38531
1.7941
0.287918
0.112203
0.137706
0.121323
0.0904046
0.107969
0.0817141
0.104201
0.0655022
0.00385705
0.036187
0.046434
0.0376152
0.0328468
0.00924453
0.0106199
0.00956702
0.0662997
0.000259941
0.000113793
0.000103273
7.3283e-05
1.4297e-05
1.30541e-05
1.81485e-05
1.44834e-05
1.52533e-05
3.97096e-06
5.1674e-06
3.44214e-06
1.02542e-05
7.811e-06
6.97416e-07
2.15441e-06
6.67182e-07
2.10274e-06
1.48444e-06
9.2641e-07
1.17172e-06
2.45708e-06
2.54612e-06
2.86835e-06
2.12518e-06
7.0229e-07
4.60301e-07
4.11151e-07
1.26485e-06
1.07498e-06
1.56573e-06
1.88715e-06
2.36994e-06
1.66823e-06
1.54019e-06
1.42609e-06
1.44473e-06
1.37249e-06
1.42301e-06
1.42058e-06
1.3793e-06
1.12011e-06
8.68446e-07
1.19844e-07
1.30273e-07
1.44807e-07
1.00294e-07
1.16335e-07
1.38607e-07
9.55418e-08
1.22855e-07
4.58871e-07
3.51383e-06
4.523e-07
3.92002e-06
4.98673e-07
2.77696e-07
3.15825e-07
3.1909e-07
2.63006e-07
3.28802e-07
4.88625e-07
4.6435e-07
5.45566e-07
7.59721e-06
2.57231e-06
7.329e-06
2.70751e-06
32.5957
220.581
24.8496
11.3124
11.4495
9.95173
13.339
8.1449
13.2145
10.6328
12.0764
5.03808
5.6843
12.1662
8.83661
9.01033
6.66475
8.86192
8.6644
15.2145
8.17325
9.23716
3.68282
3.624
4.22751
3.78672
3.87182
3.93568
3.29883
3.42182
1.12104
0.88965
1.18962
0.672542
1.21563
1.44116
1.35505
1.63996
1.76729
2.05628
2.82216
3.2141
2.99319
3.07977
2.71316
0.358982
0.215519
0.850863
0.661717
0.0336749
0.005918
0.0508994
0.0522008
0.0607732
0.0440914
0.0619976
0.340261
0.304477
0.400129
0.269895
0.0123228
0.0104406
0.00869557
0.00630631
0.00463276
0.000806869
0.00107087
1.9472e-05
1.7363e-05
1.94605e-05
1.92855e-05
8.27042e-06
2.33217e-06
6.69105e-06
2.25489e-06
1.43934e-05
3.32538e-07
4.56174e-07
3.57151e-07
2.50652e-07
9.35317e-07
1.0673e-06
1.05917e-06
2.58515e-06
2.36797e-06
2.01381e-06
1.88538e-06
1.23361e-06
2.29409e-06
1.87367e-06
2.19758e-06
2.20717e-06
2.17971e-06
2.26862e-06
2.15906e-06
2.24273e-06
2.13047e-06
1.17789e-06
1.15361e-06
1.07788e-06
1.041e-06
9.91864e-07
9.40955e-07
5.70407e-07
8.71534e-08
1.25425e-07
1.14124e-07
1.2499e-07
1.70611e-07
1.66564e-07
1.59771e-07
1.71479e-07
3.11303e-07
3.38387e-07
2.81942e-07
3.15404e-07
3.10076e-07
3.23895e-07
3.1186e-07
3.22027e-07
4.71993e-07
5.69113e-07
5.96743e-07
5.58574e-07
6.14946e-06
9.01012e-06
1.05077e-05
7.50121e-06
36.5939
53.9152
44.3183
40.286
28.9543
25.4496
30.3367
34.3994
13.0436
21.7879
17.3438
12.9888
21.8803
30.599
11.4679
20.5311
15.8294
24.9044
22.1171
20.7435
11.9635
6.82672
6.05297
5.71678
6.03723
4.62424
4.42465
2.92234
1.96531
1.60709
1.1195
1.38465
0.848213
1.02061
1.41556
1.68063
1.86035
2.26758
2.51089
3.1165
3.17937
3.12688
2.94576
3.14806
2.37091
3.10107
3.13578
3.0291
0.844221
1.49444
1.26251
0.954034
0.677717
0.598796
0.470142
0.338432
0.255358
0.108149
0.126599
0.0866955
0.0215873
0.0370994
0.010268
0.00430722
0.00325041
0.00157672
0.000767866
0.00104176
0.000924638
1.55587e-05
1.90482e-05
3.13899e-06
9.07172e-07
1.21911e-06
1.43522e-06
1.81506e-06
1.0506e-06
8.58952e-07
6.69817e-07
2.48814e-07
7.41791e-07
9.12288e-07
8.88685e-07
8.98211e-07
7.53549e-07
1.13685e-06
1.57694e-07
1.93253e-06
1.90817e-06
2.11198e-06
2.0631e-06
1.76735e-06
1.7676e-06
1.29859e-06
1.02286e-06
3.25744e-07
5.58439e-07
6.15962e-07
5.52462e-07
7.10496e-08
6.29138e-08
7.42586e-07
6.66537e-07
4.76442e-07
8.91127e-08
8.10883e-08
8.88902e-08
9.36976e-08
1.27249e-07
1.4143e-07
1.3067e-07
1.44127e-07
1.99162e-07
2.37398e-07
2.35955e-07
2.65405e-07
2.71738e-07
2.50786e-07
5.67267e-07
2.24217e-07
6.28704e-07
8.41755e-07
9.79738e-07
1.52269e-06
1.74274e-06
4.50619e-06
1.30644e-05
1.47635e-05
107.502
127.651
18.1855
42.385
26.3995
44.1413
40.9769
32.1145
20.8263
20.8736
24.1697
25.6465
33.362
26.2126
17.0597
16.7388
24.4581
28.4272
20.3999
35.1105
19.8972
8.55715
7.7569
10.2453
6.27506
16.7561
12.1516
24.2445
1.72368
1.91837
3.01732
1.15975
1.15394
1.91096
2.00508
2.46319
2.57939
2.83247
3.46693
3.54117
2.46248
1.60631
3.02391
2.50295
3.67958
3.58402
3.98324
3.19138
2.15727
3.10471
1.23607
2.66032
0.799879
0.217923
0.128924
0.16204
0.134937
0.135567
0.112443
0.038789
0.093306
0.102948
0.013018
0.0973058
0.0075525
0.0636161
5.09659e-05
1.7645e-05
4.51852e-06
5.75788e-06
1.53802e-06
1.21734e-05
2.70733e-07
2.56763e-07
2.61095e-07
1.05101e-06
2.42809e-07
1.20498e-06
1.21099e-06
8.27016e-07
1.06155e-06
8.30124e-07
8.99145e-07
8.4989e-07
6.36531e-07
5.58723e-07
5.45154e-07
7.73467e-08
4.18085e-07
5.20342e-07
7.87954e-07
4.88133e-07
5.69737e-07
4.63658e-08
1.16982e-10
1.47647e-10
2.13986e-10
6.59693e-07
5.93462e-07
7.22258e-07
6.87617e-07
1.21552e-07
3.40813e-08
8.61801e-08
8.11371e-08
5.0631e-08
5.55555e-08
6.23473e-08
7.04953e-08
1.46169e-07
1.51342e-07
1.18029e-07
1.54145e-07
1.78216e-07
2.22561e-07
2.18214e-07
5.05474e-07
5.33217e-07
5.68157e-07
5.62083e-07
7.42596e-07
7.33815e-07
8.58191e-07
1.34492e-06
1.62538e-06
1.91679e-06
2.31025e-06
1.48001e-05
224.189
200.042
148.39
60.7192
39.4552
39.2318
26.6708
30.8598
17.6486
34.1032
30.0956
34.4695
33.5163
28.7749
25.8344
22.958
31.2357
55.0742
45.3833
45.4834
45.6575
17.7904
15.4416
14.7736
26.1061
35.8107
23.3572
20.3637
2.28607
1.49198
9.6024
8.84258
5.49674
4.23389
4.70225
6.1398
5.41881
5.88031
5.28671
6.17661
6.89197
5.15489
4.81334
4.2048
3.7502
3.71864
2.22941
3.62646
2.98193
4.13677
2.29797
6.36515
0.5912
0.363917
0.30276
0.0587791
0.152191
0.155846
0.109206
0.0547905
0.119084
0.0188816
0.0992636
0.0337656
3.48806e-05
3.33454e-05
4.23059e-06
1.07612e-06
5.16229e-07
3.26936e-06
8.79032e-06
1.1437e-05
7.61742e-06
1.14762e-06
1.17897e-06
1.02013e-06
2.7943e-07
2.5786e-07
5.56808e-07
9.04645e-07
8.47701e-07
1.07644e-06
9.72944e-07
9.98489e-07
5.27059e-07
8.29773e-07
8.0404e-07
7.10612e-07
2.40555e-08
3.22257e-08
2.31318e-08
2.05407e-08
8.78412e-09
5.83425e-09
6.37972e-09
1.92493e-09
1.67181e-10
2.42901e-10
5.6656e-09
4.15626e-09
1.12593e-08
8.07737e-08
4.28707e-08
8.8878e-08
1.1404e-07
2.05264e-08
1.6506e-08
1.31778e-08
1.46756e-08
9.02958e-08
1.73217e-07
1.06078e-07
1.55529e-07
1.20826e-07
4.05241e-07
3.69241e-07
3.92425e-07
4.77781e-07
3.83903e-06
6.80771e-07
5.98972e-06
8.85366e-07
8.46753e-06
1.29703e-06
1.06685e-05
8.62234e-06
9.68717e-06
1.08852e-05
247.404
231.148
215.038
230.67
221.307
227.44
215.016
195.657
163.892
62.4455
29.8936
42.8832
29.7117
29.2527
26.7503
53.8939
59.2095
61.8809
49.0696
49.8155
18.1237
87.6994
50.9177
95.1962
278.119
292.3
280.825
275.158
200.174
15.648
34.1265
20.0713
13.8387
7.42561
7.64715
11.2426
6.5763
7.49136
7.38223
8.02933
6.89393
5.81066
4.70189
4.66932
3.87831
4.35122
3.82317
7.41781
8.67176
8.71517
7.34231
13.5139
0.0895891
0
0.0262266
0.0269449
0.0763669
0.00644974
0.0104195
0.00168685
0.00545859
0.00546754
0.00789789
0
5.44729e-05
4.71695e-05
7.12465e-06
3.02775e-06
2.57686e-06
2.99839e-06
7.16865e-06
1.11268e-05
7.95027e-06
1.22272e-05
1.27946e-05
6.15312e-06
1.02525e-06
5.76202e-07
8.5282e-07
8.68458e-07
7.77246e-07
8.6051e-07
5.93311e-07
9.20131e-07
3.54737e-07
3.72813e-07
5.18213e-07
7.10796e-07
3.08072e-08
1.0959e-08
8.00291e-09
7.47023e-09
3.25467e-09
6.41622e-09
5.14446e-09
5.1082e-09
0
0
5.5083e-10
2.27351e-10
3.39797e-10
8.84307e-08
1.12179e-07
2.22311e-08
1.00868e-07
2.20519e-08
1.70636e-08
1.41413e-08
9.44849e-09
1.34732e-08
2.27217e-09
1.49518e-07
3.76077e-07
2.93962e-07
1.47499e-06
3.31989e-06
3.37885e-06
3.54286e-06
2.45393e-06
4.4493e-06
2.19675e-06
9.80194e-06
1.21923e-05
7.33896e-06
8.41717e-06
1.15623e-05
1.15567e-05
1.20308e-05
278.616
291.355
285.808
279.374
262.855
255.972
251.084
242.767
258.223
262.049
254.579
248.952
209.561
212.034