# vtk DataFile Version 3.0
vtk output
ASCII
DATASET POLYDATA
POINTS 24578 float
-151.53 81.83 75.23
-146.76 79.98 77.9
-147.26 82.51 76.57
-151.22 79.35 76.36
-146.3 77.32 78.47
-150.76 76.75 77.01
-146.01 74.82 79.56
-150.4 74.19 77.98
-145.43 72.07 79.86
-149.95 71.56 78.66
-145.02 69.6 80.58
-149.55 69.11 79.46
-144.64 67.21 81.53
-149.14 66.64 80.2
-144.27 64.77 82.34
-148.68 64.12 80.8
-144.06 62.18 83.1
-148.26 61.63 81.51
-143.83 59.57 83.96
-148.2 59.14 82.73
-143.54 56.98 84.63
-148.02 56.58 83.6
-143.3 54.28 84.95
-147.52 53.77 83.62
-142.71 51.53 84.98
-147.03 50.98 83.68
-142.34 49.05 85.71
-146.66 48.52 84.06
-142.24 46.57 86.6
-146.26 46.05 84.34
-145.97 43.63 84.94
-141.82 44.09 87.11
-141.56 41.44 87.04
-145.67 41.21 85.5
-140.98 38.76 87.5
-145.29 38.66 85.7
-140.75 36.16 87.85
-144.89 36.1 85.85
-144.62 33.53 86.3
-140.46 33.57 88.45
-140.13 30.94 88.56
-144.22 30.94 86.41
-143.81 28.2 86.49
-139.84 28.2 88.9
-143.44 25.45 86.68
-139.6 25.51 89.44
-143.18 22.67 87.12
-139.22 22.78 89.44
-142.9 19.88 87.51
-138.79 20.04 89.71
-142.6 17.15 87.83
-138.39 17.32 89.75
-137.91 14.61 89.73
-142.25 14.42 88.03
-141.99 11.68 88.46
-137.6 11.89 89.94
-141.61 8.95 88.57
-137.22 9.16 90.05
-141.13 6.27 88.48
-136.86 6.45 90.3
-140.68 3.58 88.47
-136.37 3.76 90.16
-140.25 0.89 88.51
-135.88 1.07 90.03
-139.71 -1.79 88.26
-135.64 -1.76 90.02
-135.64 -4.55 89.75
-140 -4.44 88.09
-135.69 -7.09 89
-140.34 -7.12 88.03
-135.79 -9.62 88.23
-140.37 -9.69 87.25
-135.84 -12.19 87.54
-140.43 -12.27 86.54
-135.99 -14.75 87
-140.5 -14.79 85.8
-136.21 -17.35 86.64
-140.62 -17.33 85.19
-136.42 -19.93 86.21
-140.85 -19.94 84.82
-136.49 -22.42 85.34
-140.79 -22.34 83.7
-136.45 -24.91 84.43
-140.78 -24.79 82.73
-136.55 -27.44 83.74
-140.84 -27.3 81.99
-136.57 -29.97 82.98
-140.97 -29.86 81.42
-136.73 -32.54 82.43
-141.02 -32.36 80.63
-136.76 -35.12 81.64
-141.09 -34.97 79.94
-141.32 -37.69 79.69
-136.83 -37.72 80.96
-141.45 -40.33 79.13
-136.9 -40.34 80.32
-137.11 -43 79.41
-141.48 -42.91 78.35
-141.57 -45.38 77.61
-137.04 -45.54 78.64
-141.59 -47.8 76.7
-137.03 -47.91 77.56
-141.86 -50.43 76.49
-137.15 -50.39 76.9
-141.9 -52.84 75.63
-137.27 -52.84 76.11
-141.91 -55.11 74.4
-137.53 -55.19 75.26
-137.48 -57.49 74.21
-141.9 -57.35 73.07
-142.03 -59.74 72.14
-137.7 -59.92 73.43
-142.25 -62.22 71.44
-137.97 -62.48 72.92
-142.57 -64.67 70.67
-138.15 -65.14 72.4
-142.87 -67.1 69.86
-138.34 -67.41 71.12
-143.16 -69.56 69.09
-138.58 -69.8 70.17
-143.42 -71.97 68.22
-138.72 -72 68.84
-143.42 -74.03 66.78
-138.71 -74.17 67.59
-143.52 -76.26 65.69
-138.9 -76.5 66.65
-143.64 -78.59 64.8
-139.03 -78.91 65.88
-143.64 -80.66 63.43
-139.36 -81.09 64.3
-142.41 80.53 78.87
-142.88 83.09 77.59
-141.83 77.87 79.86
-141.49 75.33 80.8
-140.97 72.61 81.19
-140.47 70.13 81.77
-140.01 67.69 82.47
-139.94 65.21 83.59
-139.84 62.72 84.64
-139.44 60.04 85.13
-139.12 57.42 85.86
-138.88 54.8 86.42
-138.56 52.14 86.78
-138.19 49.56 87.25
-137.83 46.99 87.76
-137.58 44.31 88.01
-137.31 41.63 88.23
-137.03 38.95 89.21
-136.57 36.22 89.77
-136.22 33.57 90.06
-135.88 30.91 90.36
-135.74 28.24 91.1
-135.47 25.56 91.56
-134.94 22.88 91.41
-134.47 20.19 91.43
-134.08 17.49 91.57
-133.61 14.8 91.52
-133.09 12.1 91.2
-132.71 9.37 91.23
-132.3 6.67 91.32
-131.94 3.96 91.53
-131.76 1.11 91.67
-131.5 -1.71 91.62
-131.31 -4.41 90.89
-131.1 -7.09 90.13
-131.35 -9.7 89.79
-131.55 -12.29 89.33
-131.63 -14.81 88.62
-131.74 -17.34 87.96
-131.85 -19.85 87.19
-132.06 -22.42 86.66
-132.19 -25.02 86.17
-132.25 -27.57 85.48
-132.26 -30.09 84.65
-132.44 -32.72 84.26
-132.56 -35.36 83.72
-132.63 -37.97 83.04
-132.75 -40.58 81.94
-132.83 -43.16 80.72
-132.77 -45.71 79.94
-132.75 -48.3 79.25
-132.77 -50.64 78.12
-132.8 -52.99 77
-132.95 -55.32 76.2
-133.13 -57.69 75.53
-133.33 -60.11 74.69
-133.5 -62.48 73.72
-133.64 -65.09 73
-133.72 -67.59 72.04
-133.86 -69.81 70.74
-134.01 -72.03 69.43
-134.18 -74.44 68.63
-134.35 -76.86 67.84
-134.77 -79.33 66.76
-135.07 -81.54 65.2
-138.04 81.11 79.93
-138.51 83.66 78.64
-137.48 78.45 80.95
-136.81 75.7 81.58
-136.53 73.2 82.68
-136.2 70.85 83.66
-136.01 68.35 84.53
-135.78 65.76 85.17
-135.49 63.19 85.82
-135.19 60.56 86.38
-134.98 57.99 87.45
-134.76 55.37 88.25
-134.53 52.77 88.88
-134 50.11 89.1
-133.65 47.3 89.03
-133.3 44.56 89.42
-133.29 41.92 90.17
-132.89 39.2 91
-132.5 36.43 91.58
-132.05 33.68 92.21
-131.7 30.98 92.36
-131.44 28.31 92.66
-131.04 25.67 93.02
-130.62 23.02 93.01
-130.15 20.36 93.11
-129.82 17.66 93.35
-129.27 14.97 93.05
-128.74 12.27 92.73
-128.4 9.55 92.87
-127.96 6.85 92.86
-127.84 4 93.22
-127.59 1.17 93.17
-127.27 -1.64 92.97
-127.25 -4.36 92.57
-127.15 -7.08 92.07
-127.17 -9.83 91.83
-127.29 -12.38 91.16
-127.29 -14.86 90.23
-127.44 -17.42 89.6
-127.57 -19.97 88.96
-127.76 -22.53 88.35
-127.82 -25.1 87.72
-127.85 -27.64 86.95
-127.95 -30.27 86.46
-128.2 -32.95 86.24
-128.25 -35.54 85.49
-128.5 -38.26 84.8
-128.59 -40.83 83.55
-128.62 -43.36 82.3
-128.5 -45.86 81.36
-128.57 -48.51 80.64
-128.51 -50.96 79.6
-128.63 -53.39 78.68
-128.82 -55.89 78.24
-129.15 -58.39 77.85
-129.06 -60.46 76.29
-128.99 -62.4 74.44
-128.98 -64.79 73.19
-129.01 -67.15 71.96
-128.97 -69.58 70.84
-129.28 -72.05 69.98
-129.48 -74.55 69.36
-130.01 -77.21 68.65
-130.42 -79.71 67.63
-130.79 -82.03 66.21
-133.82 81.84 81.46
-134.36 84.47 80.38
-133.19 79.09 82.22
-132.49 76.28 82.7
-131.95 73.65 83.71
-131.93 71.29 85
-131.87 68.9 86.17
-131.5 66.27 86.57
-131.13 63.64 86.94
-130.87 61.02 87.58
-130.68 58.45 88.47
-130.46 55.86 89.34
-130.18 53.24 90.02
-129.88 50.44 90.31
-129.64 47.69 90.79
-129.42 44.94 91.36
-129.23 42.2 92.03
-128.71 39.37 92.41
-128.45 36.65 93.48
-128.03 33.86 94.03
-127.47 31.03 94.24
-127.19 28.41 94.71
-126.88 25.78 95.12
-126.32 23.16 94.88
-125.8 20.53 94.74
-125.36 17.84 94.64
-124.86 15.16 94.43
-124.49 12.44 94.52
-124.2 9.71 94.8
-123.95 6.88 94.78
-123.68 4.05 94.73
-123.4 1.23 94.62
-123.18 -1.6 94.69
-123.37 -4.41 94.84
-123.31 -7.12 94.32
-123.16 -9.79 93.63
-122.95 -12.42 92.76
-123.09 -14.99 92.12
-123.27 -17.57 91.56
-123.4 -20.13 90.9
-123.5 -22.66 90.14
-123.53 -25.22 89.42
-123.57 -27.78 88.7
-123.68 -30.42 88.22
-123.74 -33.02 87.62
-123.94 -35.69 86.77
-124.14 -38.36 85.91
-124.27 -40.96 84.88
-124.51 -43.67 84.17
-124.44 -46.18 83.04
-124.36 -48.68 81.9
-124.32 -51.14 80.87
-124.34 -53.66 80.01
-124.65 -56.22 79.72
-124.85 -58.64 79.12
-124.76 -60.62 77.46
-124.57 -62.46 75.52
-124.49 -64.69 73.94
-124.51 -67.1 72.74
-124.57 -69.65 71.8
-124.65 -72.26 70.99
-125.14 -74.86 70.13
-125.57 -77.36 69.04
-126.01 -79.84 67.96
-126.39 -82.16 66.58
-129.58 82.52 82.46
-130.23 85.32 82
-128.9 79.77 83.09
-128.4 77.11 83.84
-127.98 74.41 84.96
-127.56 71.77 85.9
-127.33 69.24 86.57
-127.15 66.76 87.43
-126.86 64.14 88.01
-126.52 61.49 88.81
-126.36 58.96 89.84
-126.14 56.38 90.8
-125.97 53.53 91.15
-125.51 50.64 91.5
-125.42 47.93 92.31
-125.22 45.19 93.14
-125.05 42.45 93.81
-124.64 39.66 94.38
-124.31 36.88 95.2
-123.77 34.05 95.42
-123.26 31.23 95.69
-122.78 28.52 96.11
-122.44 25.87 96.38
-121.98 23.27 96.26
-121.42 20.65 96.06
-121.04 17.96 96.08
-120.68 15.29 96.36
-120.38 12.57 96.56
-120.17 9.75 96.72
-119.91 6.93 96.66
-119.55 4.12 96.37
-119.27 1.3 96.28
-119.07 -1.54 96.32
-119.25 -4.36 96.51
-119.22 -7.1 96.08
-119.04 -9.77 95.31
-119 -12.5 94.8
-118.91 -15.21 94.19
-119.08 -17.79 93.59
-119.2 -20.38 92.98
-119.3 -22.91 92.18
-119.31 -25.47 91.43
-119.31 -28 90.63
-119.33 -30.55 89.87
-119.45 -33.15 88.84
-119.6 -35.8 87.91
-119.83 -38.5 87.17
-120.05 -41.2 86.43
-120.26 -43.87 85.57
-120.32 -46.42 84.63
-120.24 -48.94 83.59
-120.24 -51.46 82.7
-120.29 -53.99 81.83
-120.1 -56.26 80.6
-120.22 -58.48 79.45
-120.33 -60.66 78.2
-120.24 -62.81 76.84
-120.26 -65.2 75.6
-120.18 -67.48 74.2
-120.23 -70.02 73.25
-120.52 -72.67 72.16
-120.81 -75.19 70.96
-121.18 -77.58 69.65
-121.52 -79.9 68.24
-121.92 -82.27 66.97
-125.25 83.17 83.41
-125.88 85.88 82.84
-124.6 80.45 83.94
-124.22 77.72 84.75
-123.94 75.09 85.93
-123.46 72.43 86.81
-122.93 69.71 87.46
-122.73 67.14 88.15
-122.59 64.64 89.06
-122.25 62 89.9
-121.95 59.4 90.9
-121.96 56.7 91.92
-121.73 53.8 92.2
-121.47 50.99 93.04
-121.27 48.22 94.07
-121.07 45.45 94.8
-120.88 42.69 95.58
-120.53 39.9 96.26
-120.06 37.06 96.59
-119.52 34.23 96.77
-119.19 31.45 97.53
-118.64 28.71 97.7
-118.07 25.97 97.81
-117.65 23.36 97.86
-117.2 20.75 97.82
-116.76 18.09 97.81
-116.45 15.42 98.16
-116.25 12.62 98.27
-115.94 9.82 98.09
-115.72 7.01 98.16
-115.43 4.19 98.08
-115.24 1.34 98.13
-115.02 -1.5 98.11
-115.03 -4.27 97.86
-115.05 -7.04 97.62
-115.01 -9.78 97.12
-114.91 -12.5 96.46
-114.83 -15.21 95.87
-114.79 -17.94 95.36
-114.95 -20.55 94.79
-115.09 -23.14 94.17
-115.09 -25.69 93.41
-115.09 -28.25 92.66
-115.19 -30.82 91.55
-115.34 -33.43 90.58
-115.56 -36.16 89.86
-115.65 -38.76 88.81
-115.73 -41.32 87.6
-115.89 -43.96 86.62
-115.94 -46.5 85.75
-115.97 -49.02 84.82
-116.06 -51.62 84.1
-116.16 -54.22 83.41
-116 -56.46 81.98
-115.78 -58.59 80.34
-115.73 -60.7 78.9
-115.82 -63.01 77.89
-115.91 -65.56 77.02
-115.85 -67.86 75.66
-116.07 -70.39 74.35
-116.45 -73.24 73.66
-116.73 -75.78 72.45
-116.87 -78.01 70.66
-117.13 -80.1 68.85
-117.46 -82.37 67.36
-120.93 83.58 83.84
-121.35 86.18 83.25
-120.43 80.92 84.76
-120.24 78.29 85.68
-119.85 75.73 86.84
-119.39 73.08 87.68
-118.97 70.39 88.56
-118.52 67.71 89.38
-118.27 65.1 89.93
-117.89 62.43 90.71
-117.77 59.68 91.68
-117.62 56.89 92.64
-117.53 54.11 93.38
-117.25 51.28 94.27
-116.99 48.44 95.07
-116.61 45.56 95.63
-116.37 42.76 96.18
-116.01 39.98 96.85
-115.62 37.17 97.41
-115.23 34.39 98.02
-114.97 31.62 98.96
-114.53 28.91 99.33
-113.9 26.15 99.26
-113.4 23.47 99.53
-113.04 20.85 99.72
-112.61 18.2 99.71
-112.34 15.45 99.77
-112.11 12.66 99.75
-111.7 9.9 99.43
-111.54 7.08 99.65
-111.31 4.26 99.65
-111.1 1.42 99.6
-110.91 -1.42 99.76
-110.84 -4.17 99.3
-110.76 -6.92 98.71
-110.8 -9.71 98.47
-110.76 -12.46 97.96
-110.67 -15.19 97.39
-110.65 -17.93 96.92
-110.56 -20.62 96.27
-110.66 -23.19 95.59
[...]
CELL_DATA 49152
SCALARS Temperature float 1
LOOKUP_TABLE default
4.2116e-06
3.8968e-06
6.97026e-06
2.81462e-06
3.15827e-06
2.37213e-06
4.04155e-06
3.62914e-06
3.57868e-06
7.75544e-06
7.20383e-06
6.70281e-06
6.2515e-06
4.69204e-06
1.65636e-06
2.10868e-06
2.32509e-06
4.83816e-06
6.91177e-06
7.57117e-06
7.48503e-06
3.24165e-06
1.30898e-06
8.19998e-07
8.59155e-07
1.9328e-06
1.80328e-06
3.28161e-06
3.36845e-06
3.21378e-06
3.44534e-06
2.00755e-06
9.57605e-07
5.93897e-06
2.2897e-06
8.21944e-06
4.64032e-06
5.83433e-06
6.83827e-05
4.48914e-05
4.87412e-05
7.48212e-05
5.1988e-05
8.60543e-05
9.46306e-05
0.000104762
8.62228e-05
0.000310939
0.000195668
0.000378035
1.54984e-05
4.07263e-05
6.60555e-05
6.73652e-05
0.000143375
0.00015071
8.59884e-05
0.000317592
0.000826289
0.00534182
0.000682384
0.000796485
0.00110638
0.00100542
0.00112206
0.00096611
0.0189548
0.0212688
0.0326037
0.0340313
0.0339993
0.0349438
0.0354005
0.0334404
0.0338623
0.0271833
0.0289404
0.0302006
0.195594
0.166148
0.149377
0.127188
0.117627
0.114672
0.123484
0.076223
0.0541111
0.146954
0.152502
0.0659837
0.0535465
0.0829167
1.20821
1.47721
1.77469
1.78494
1.83387
1.98371
1.94118
2.15092
2.49656
3.26541
10.1637
8.15076
12.3422
6.92816
6.80475
5.01644
4.62981
4.52738
4.26022
14.2566
9.67129
3.16404
3.16375
116.778
17.2986
23.5973
24.7095
251.029
263.638
47.5258
55.1209
61.076
52.9722
58.1695
212.12
220.534
3.25542e-06
3.47619e-06
2.12694e-05
8.41534e-06
2.7864e-06
3.7219e-06
9.64044e-06
2.85132e-06
2.42238e-06
2.64862e-06
2.39642e-06
2.8557e-06
2.83941e-06
6.89384e-06
5.09695e-06
1.81068e-06
4.80758e-06
7.24424e-06
7.30185e-06
6.86391e-06
8.37655e-07
1.81603e-06
1.35569e-06
1.94007e-06
1.83492e-06
1.34714e-06
1.85795e-06
3.37302e-06
3.34104e-06
3.60998e-06
6.24741e-07
2.43778e-06
9.0374e-07
1.10968e-06
2.59024e-06
3.34853e-06
3.05219e-06
1.50109e-06
2.04387e-06
3.27721e-06
3.03563e-06
8.24988e-06
1.14275e-05
1.02828e-05
0.000444898
0.00034747
0.000101483
0.000257146
5.62844e-05
6.25148e-05
0.000108482
8.87794e-05
0.000169357
0.000150668
7.5813e-05
0.000222829
0.00021837
0.000221061
0.000287774
8.90233e-05
0.000356086
8.70231e-05
0.000688824
0.000614402
0.0115671
0.0132306
0.0143738
0.0161991
0.0140835
0.0175342
0.0111706
0.0144163
0.0168441
0.0230346
0.0271609
0.0352967
0.036255
0.0426516
0.0435201
0.194193
0.0448773
0.237005
0.181173
0.181001
0.238637
0.151146
0.0564916
0.111886
0.132178
0.305327
0.469255
0.349504
0.917026
0.283361
3.84387
1.78582
1.91204
2.11258
1.53318
1.7706
1.86944
14.1049
2.72305
14.7622
9.49386
9.84071
7.04746
4.04064
5.55415
7.03688
17.7769
184.61
47.1133
160.26
247.351
130.551
128.161
252.387
254.962
250.894
27.5294
71.2101
56.9235
64.5555
60.527
40.7012
219.67
213.729
2.66666e-06
2.75458e-06
8.02942e-06
8.03332e-06
2.28316e-05
2.84691e-05
1.03097e-05
3.69795e-06
2.46311e-06
2.80353e-06
2.79372e-06
2.68033e-06
2.58127e-06
2.72307e-06
3.02015e-06
6.33001e-06
8.81615e-06
8.08586e-06
5.8908e-06
2.22229e-06
2.2194e-06
2.11382e-06
2.0789e-06
2.35186e-06
2.18908e-06
1.93924e-06
1.60948e-06
2.47275e-06
6.98654e-07
7.88586e-07
1.1896e-06
7.89828e-07
9.69497e-07
2.20732e-06
2.3319e-06
2.62594e-06
1.9876e-06
7.13733e-06
8.99539e-06
8.48549e-06
4.50033e-06
5.65795e-06
5.23758e-06
9.38915e-06
4.19928e-05
0.00030094
4.07565e-05
3.47464e-05
4.00479e-05
4.46091e-05
0.000220144
0.000184869
8.77298e-05
7.32289e-05
6.36174e-05
5.92303e-05
6.11372e-05
6.01913e-05
6.81737e-05
6.98534e-05
6.42541e-05
0.000222474
0.0035617
0.00946321
0.0141625
0.0134427
0.01418
0.00733942
0.0121491
0.0111048
0.0354121
0.00885573
0.133681
0.0312337
0.0380282
0.0301843
0.0374857
0.0222469
0.029125
0.0313633
0.0308227
0.0382067
0.128366
0.0394935
0.0382494
0.141867
0.0517192
0.0537208
0.271225
0.108575
0.169402
0.260192
11.5134
9.56098
12.4437
4.00195
2.30932
2.30059
2.45987
2.54126
13.669
15.3752
12.5135
16.9838
5.42147
5.02028
5.68162
4.70746
34.872
20.5805
208.259
74.7701
75.6609
72.5212
70.4145
66.24
295.628
69.7851
283.926
91.8659
77.6947
86.003
64.3271
74.879
144.937
42.8707
223.116
163.699
3.37649e-06
3.20899e-06
7.54576e-06
5.37758e-06
1.67601e-05
1.08291e-05
8.9112e-06
8.79924e-06
8.83952e-06
5.50122e-06
7.57046e-06
3.32873e-06
5.74659e-06
7.00427e-06
9.19012e-06
9.55418e-06
9.66839e-06
9.11402e-06
8.09426e-06
2.00332e-05
8.54923e-06
8.02069e-06
7.78992e-06
7.26099e-06
5.72536e-06
5.207e-06
5.1367e-06
1.06693e-06
9.80624e-07
1.24653e-06
1.57492e-06
1.53335e-06
1.91672e-06
8.0916e-07
7.67851e-07
2.42386e-06
4.08783e-06
3.36486e-06
7.64421e-06
6.20445e-06
1.72894e-06
2.34142e-06
5.0183e-06
5.02384e-05
0.000135152
4.17275e-05
9.20964e-05
2.84105e-05
6.91694e-05
4.69854e-05
0.000103372
0.000106045
8.9264e-05
6.98559e-05
5.22359e-05
4.84411e-05
4.37354e-05
4.25773e-05
6.53024e-05
0.000255143
0.00024935
0.000320164
0.000578237
0.00151657
0.00114012
0.00690618
0.0986216
0.028021
0.0451603
0.0134392
0.193423
0.0704067
0.044467
0.202865
0.0654021
0.14729
0.16742
0.160942
0.200829
0.101393
0.150881
0.121054
0.10745
0.120359
0.0401133
0.0421768
0.0485121
0.0689647
0.146112
0.175327
0.887405
1.14744
1.30154
11.3006
2.53167
13.394
13.6869
3.97034
4.47394
2.67609
3.74453
4.10734
1.44647
1.43087
2.84921
3.19236
3.41442
4.75824
226.321
226.148
262.395
262.852
69.7765
81.8221
69.0417
67.8353
67.3631
72.9589
78.211
73.899
81.6396
67.3102
72.992
231.618
226.031
237.461
262.745
258.148
1.63484e-05
1.09243e-05
2.87522e-05
2.92544e-05
2.93906e-05
2.1242e-05
8.07246e-06
6.76311e-06
6.66832e-06
9.6437e-06
2.72257e-05
3.44779e-05
3.45559e-05
2.5052e-05
2.50173e-05
1.13849e-05
1.77361e-05
9.39153e-06
1.56032e-05
6.65888e-06
7.25756e-06
4.66315e-06
6.57187e-06
7.7403e-06
6.05635e-06
5.86627e-06
5.26953e-06
3.15134e-06
2.96617e-06
2.39879e-06
1.76445e-06
1.7378e-06
9.95882e-07
1.69415e-06
2.3728e-06
1.86057e-06
1.385e-06
3.98907e-06
4.82803e-06
1.11971e-06
2.87106e-06
1.38014e-06
1.49565e-06
2.07199e-05
8.88479e-05
0.000121374
9.37135e-05
9.3285e-05
5.92408e-05
7.56083e-05
9.37251e-05
3.15346e-05
7.42567e-05
0.000482537
0.000450643
0.000451079
0.000574987
0.000653878
0.000769313
0.000239859
0.000490403
0.000649735
0.000995178
0.00139557
0.000724343
0.000735757
0.00383691
0.0177799
0.167391
0.141808
0.031087
0.208875
0.171111
0.158328
0.145472
0.120359
0.158116
0.179144
0.21508
0.207371
0.17475
0.12793
0.148871
0.0457205
0.0242541
0.0380367
0.132673
0.0741794
0.103772
0.0963298
0.0938704
0.600006
1.0137
0.737391
1.2055
1.49725
1.70907
4.16104
3.79349
4.36009
1.82986
2.1724
1.94714
2.11916
2.84148
223.318
53.0542
262.442
269.487
269.687
246.694
245.684
75.7982
68.192
67.8806
72.3864
75.5672
71.4707
74.7907
64.6874
71.375
41.913
137.999
228.872
201.753
268.16
266.613
250.304
3.77251e-05
3.51155e-05
3.46708e-05
3.4354e-05
3.15547e-05
2.94254e-05
2.28054e-05
1.26271e-05
2.11932e-05
2.39603e-05
2.62844e-05
2.84887e-05
2.82494e-05
3.08614e-05
3.04604e-05
1.8217e-05
1.99485e-05
1.67988e-05
1.87527e-05
2.09426e-05
1.91219e-05
1.59525e-05
9.31253e-06
8.87389e-06
6.7705e-06
3.92782e-06
2.93783e-06
3.45421e-06
2.65754e-06
2.39122e-06
1.60691e-06
2.07879e-06
1.36599e-06
1.93608e-06
2.09147e-06
5.12396e-06
4.39494e-06
5.17102e-06
5.96497e-06
3.1692e-06
2.25894e-06
2.52692e-06
2.84982e-06
3.01583e-05
3.90653e-05
6.34421e-05
5.4613e-05
6.07126e-05
3.36242e-05
4.82082e-05
5.78629e-05
7.18388e-05
4.23176e-05
3.17731e-05
1.09887e-05
2.47658e-05
2.98989e-05
2.11749e-05
0.00016338
0.000784923
0.000683214
0.00192196
0.00271804
0.00298006
0.000600486
0.000475728
2.80706e-05
0
4.35969e-06
0.172158
0.0859444
0.0295524
0.0561389
0.085133
0.0184169
0.0436716
0.0385805
0.0957249
0.0991879
0.213208
0.218576
0.218539
0.224568
0.211026
0.236678
0.132975
0.200234
0.142006
0.496368
0.230034
0.827963
0.161152
0.405674
1.31031
1.67303
1.85584
2.05912
2.08113
2.20973
2.02512
1.74403
1.24267
1.04572
1.38073
56.9568
56.4119
62.7617
50.0848
43.3512
39.949
31.4386
49.5702
51.8021
66.6676
53.3673
55.3081
67.527
50.4924
59.3434
72.5087
64.6294
63.3983
72.7269
139.191
231.629
240.31
227.412
265.663
4.94703e-05
4.76895e-05
4.19281e-05
3.9184e-05
3.27454e-05
2.85019e-05
2.22993e-05
2.25716e-05
2.80722e-05
2.79356e-05
2.81661e-05
1.28728e-05
1.17779e-05
1.16724e-05
1.29054e-05
2.76865e-05
2.52921e-05
2.5742e-05
2.34057e-05
2.35336e-05
1.23551e-05
1.89831e-05
1.12047e-05
6.63002e-06
6.48595e-06
6.23628e-06
6.3001e-06
7.3947e-06
7.63638e-06
8.12687e-06
8.44212e-06
8.91814e-06
9.04533e-06
9.32378e-06
1.07732e-05
1.00725e-05
1.04721e-05
9.82775e-06
1.02729e-05
1.05035e-05
7.77727e-07
1.77129e-06
1.71402e-05
1.96903e-05
5.85497e-06
9.16372e-06
0.000402995
0.000335862
0.000483279
2.6293e-05
9.10763e-05
1.33131e-05
3.18237e-05
2.28928e-05
4.20278e-05
3.94341e-05
8.76668e-06
8.91921e-06
4.5049e-05
2.04903e-05
4.49818e-05
2.65336e-05
2.44013e-05
2.1482e-05
2.99757e-06
1.71275e-06
3.00172e-05
2.70073e-05
3.61621e-05
0.00333854
0.000976059
0.00817271
0.00144639
0.0096027
0.00828227
0.0143539
0.015152
0.0678421
0.0974628
0.100217
0.2284
0.263745
0.213452
0.149472
0.29505
0.928188
0.804016
0.666745
0.184376
0.352643
3.2413
0.926928
1.71735
1.73363
1.60518
1.65344
1.7649
1.75133
1.9061
2.09985
2.20371
2.62785
2.83409
3.77118
5.20324
44.6224
46.1192
54.4476
48.7868
56.3018
54.4654
54.7695
58.3092
155.375
194.9
194.895
31.4039
34.1875
60.4104
53.4467
26.7585
46.1876
243.186
246.611
256.518
257.797
231.84
267.8
4.48855e-05
4.32433e-05
4.00657e-05
3.92275e-05
3.96957e-05
3.86621e-05
3.8547e-05
4.00785e-05
4.04164e-05
3.7744e-05
3.69392e-05
2.96176e-05
2.94059e-05
2.0363e-05
1.82417e-05
2.3816e-05
2.37761e-05
1.47641e-05
1.25465e-05
1.25031e-05
1.22692e-05
1.19289e-05
7.96342e-06
7.70191e-06
7.70149e-06
7.60232e-06
8.03639e-06
8.34574e-06
8.75605e-06
8.87189e-06
9.17463e-06
8.84992e-06
9.04352e-06
8.91284e-06
9.67281e-06
1.03695e-05
1.07733e-05
1.09482e-05
1.10343e-05
1.2541e-05
1.20399e-05
1.38807e-05
8.61449e-06
2.32079e-06
2.40004e-06
2.74506e-06
2.21843e-06
2.67422e-06
1.23471e-06
6.00054e-07
1.46927e-05
1.16881e-05
5.04597e-05
2.3713e-05
4.35623e-05
5.23952e-06
7.29363e-06
7.35953e-06
8.07859e-06
4.57246e-05
3.13838e-05
5.30849e-06
2.94441e-05
3.96947e-05
4.29668e-05
0.000381075
3.91616e-05
3.43113e-05
2.75291e-05
3.8613e-05
0.000425338
0.000707262
0.000204539
0.00104612
0.00538968
0.0147946
0.138254
0.0218187
0.166614
0.118053
0.154609
0.165526
0.218002
0.266546
0.543443
0.623199
0.839856
0.899207
0.75014
0.861728
1.90054
2.59788
1.93808
1.89442
1.29792
1.2059
1.31559
1.38848
1.69561
1.74374
1.89319
2.35572
2.68701
4.25723
4.75444
22.86
29.7302
50.7601
45.4758
52.8592
52.5469
47.1294
47.5367
40.5338
145.075
142.304
206.78
20.1936
46.3773
48.5866
231.567
305.233
322.415
277.85
299.631
205.391
247.22
98.3779
2.55822e-05
2.52139e-05
2.31868e-05
1.99578e-05
1.9197e-05
2.85013e-05
2.41403e-05
2.31682e-05
3.27204e-05
3.6805e-05
3.84535e-05
4.37714e-05
4.21488e-05
4.21874e-05
3.93267e-05
1.79404e-05
1.30994e-05
1.23775e-05
7.38522e-06
1.33019e-05
6.5484e-06
1.23356e-05
8.20739e-06
7.95042e-06
8.20279e-06
7.99352e-06
8.35065e-06
7.96275e-06
8.29852e-06
7.09706e-06
7.34298e-06
6.74919e-06
7.17819e-06
7.75445e-06
8.13059e-06
9.03902e-06
1.0359e-05
1.14733e-05
8.12437e-06
9.20812e-06
9.01823e-06
9.69624e-06
3.7254e-06
6.9827e-06
2.99989e-06
2.25179e-06
2.47083e-06
2.46636e-06
2.36084e-06
2.52111e-06
1.63175e-06
1.82631e-06
4.51613e-05
3.79843e-05
4.74652e-05
4.52414e-05
8.34383e-06
3.09144e-05
8.66594e-05
0.000393089
1.06503e-05
1.44175e-05
8.5236e-06
3.22734e-05
3.65102e-05
3.71969e-05
3.62533e-05
3.76496e-05
3.70315e-05
3.64498e-05
6.57078e-05
7.86332e-05
0.00011879
0.000249852
0.000300331
0.000354626
0.00019646
0.0687525
0.367929
0.857554
1.07515
0.195068
0.426373
0.114936
0.122042
0.322186
0.532993
0.683389
0.651648
0.695156
1.44535
1.55307
1.16586
1.48774
1.46746
1.6533
1.60524
2.0516
2.21959
2.17416
2.46818
1.57706
14.132
2.10804
5.9289
6.01358
10.1093
13.1752
28.8874
25.4321
210.29
212.229
197.757
194.769
189.43
191.447
54.7539
58.1415
56.1645
59.9726
84.8456
77.1336
94.2269
78.5932
174.313
153.291
157.634
193.222
5.81252e-05
6.16228e-05
6.82345e-05
6.27608e-05
5.48027e-05
5.02768e-05
4.81069e-05
4.8183e-05
4.85818e-05
4.11731e-05
3.96969e-05
2.7867e-05
2.5698e-05
1.43888e-05
1.35696e-05
1.46707e-05
1.27269e-05
1.12457e-05
8.48255e-06
1.30333e-05
6.86602e-06
1.40393e-05
8.97824e-06
6.66111e-06
8.54257e-06
8.23938e-06
7.46249e-06
7.45883e-06
7.67593e-06
8.36058e-06
8.62976e-06
8.69924e-06
9.16396e-06
9.96382e-06
1.09375e-05
1.23814e-05
1.28457e-05
1.46955e-05
1.41542e-05
1.58399e-05
1.64533e-05
1.99939e-05
5.94923e-06
5.40085e-06
5.97465e-06
4.12085e-06
2.38774e-06
2.70663e-06
2.6493e-06
3.1246e-06
2.2861e-06
1.5093e-06
3.07775e-05
2.95205e-05
2.9695e-05
4.2146e-06
4.34321e-06
4.38146e-06
8.16335e-06
1.03222e-05
0.000379646
0.00025429
0.000333644
0.000320079
5.35733e-05
4.55308e-05
3.6798e-05
3.35697e-05
3.32354e-05
2.68219e-05
6.11702e-05
9.96607e-05
0.000116233
0.000186754
0.000103272
0.000218384
0.000665071
0.000850447
0.00106561
0.0378858
0.0293048
0.912049
1.04064
0.688541
0.297855
0.137994
0.719712
0.504927
1.03984
0.804723
0.913706
1.29311
1.1299
0.99271
1.19916
1.1308
0.908462
0.892435
14.5015
9.87862
19.7619
9.89375
25.9462
28.7542
33.0761
33.6436
34.0003
29.7867
32.2643
20.8953
25.2715
50.7019
49.5632
44.6799
51.4788
46.7581
51.53
62.8317
62.542
56.3334
65.7602
74.8191
87.259
91.4082
93.8036
77.4549
209.894
228.414
8.77003e-05
8.47899e-05
6.20293e-05
7.31833e-05
5.61671e-05
5.53515e-05
5.09213e-05
4.66426e-05
4.35655e-05
3.90936e-05
4.02466e-05
2.83284e-05
1.27167e-05
1.68515e-05
1.54323e-05
1.41503e-05
1.32664e-05
1.42702e-05
1.44283e-05
1.7138e-05
1.46492e-05
1.35865e-05
7.45155e-06
7.12738e-06
7.99031e-06
7.11741e-06
7.04143e-06
7.15545e-06
7.23443e-06
8.68276e-06
1.10116e-05
1.01677e-05
1.10987e-05
1.30247e-05
1.55954e-05
1.80165e-05
1.66105e-05
1.97391e-05
2.10403e-05
2.4049e-05
3.07736e-05
3.4186e-05
2.77357e-05
2.9309e-05
2.66601e-05
5.94892e-06
5.06245e-06
1.00454e-05
8.20989e-06
6.03043e-06
1.57337e-05
2.05545e-05
1.84493e-05
1.85265e-06
2.67424e-06
2.14747e-06
5.8084e-06
5.20043e-06
7.44645e-06
5.47175e-06
3.58076e-06
9.77007e-07
7.40431e-06
7.99499e-07
8.60801e-07
1.40372e-05
2.19595e-05
0.00025498
0.000137219
9.57025e-05
0.000107202
9.99327e-05
9.33664e-05
6.90185e-05
0.000216071
0.00187922
0.00339559
0.00394705
0.00398061
0.00118885
0.00259728
0.00347956
0.00237089
1.11163
1.05962
1.09424
1.01068
0.941809
1.08595
1.08759
6.00381
5.84207
7.1793
2.75758
12.7259
11.7023
20.094
12.8364
19.191
14.9466
25.1677
23.659
26.723
14.5101
20.9728
30.4906
28.8628
31.5554
35.5743
35.7708
35.2086
37.4347
43.5484
46.8989
48.6335
52.6337
52.9304
55.3228
55.5021
60.8434
56.4891
188.474
42.0107
49.7024
203.951
184.216
228.341
241.507
5.35488e-05
0.000112634
4.38279e-05
4.67909e-05
4.93537e-05
4.68632e-05
4.30808e-05
4.38289e-05
4.98307e-05
5.20468e-05
5.15813e-05
4.72195e-05
5.06678e-05
7.15035e-05
1.51436e-05
2.71868e-05
2.22478e-05
5.4657e-05
5.19534e-05
4.24853e-05
1.45772e-05
2.48881e-05
2.02713e-05
1.43199e-05
1.32021e-05
1.12863e-05
8.24457e-06
1.13185e-05
7.69154e-06
9.21388e-06
1.09588e-05
1.35785e-05
1.29629e-05
1.55729e-05
1.80918e-05
2.05625e-05
2.22116e-05
2.67721e-05
2.8035e-05
3.33033e-05
3.37102e-05
3.28113e-05
3.04852e-05
3.26904e-05
2.46655e-05
3.22641e-05
3.26142e-05
3.90279e-05
2.29182e-05
2.07204e-05
1.88927e-05
1.33164e-05
1.14208e-05
1.00911e-05
7.93275e-06
5.79689e-06
4.53619e-06
3.08368e-06
3.43148e-06
2.6139e-06
1.02576e-06
1.6136e-06
4.42532e-07
5.69036e-07
6.45001e-07
1.22286e-06
6.6878e-05
1.68335e-05
1.70874e-05
8.19292e-05
7.90408e-05
0.000167302
0.000246166
0.000298907
0.000335491
0.000427222
0.0183905
0.0224423
0.00272741
0.00336199
0.00296849
0.00287937
0.00249484
0.00268431
0.00170519
0.522444
0.0662442
1.04436
5.54824
6.44542
10.4946
6.40729
10.9911
6.10874
9.51717
1.12177
11.159
12.3088
9.27294
4.50838
6.81252
19.5597
24.039
20.4337
20.1308
17.8802
19.6035
18.672
24.561
105.26
25.7643
28.7863
125.914
120.139
124.756
121.078
153.709
158.217
180.485
185.601
202.758
209.426
64.4904
233.52
248.77
244.498
270.539
264.04
0.000125463
0.000345718
5.34671e-05
8.5272e-05
2.55366e-05
8.10614e-05
6.9594e-05
4.91035e-05
4.9046e-05
5.1441e-05
2.33858e-05
2.79732e-05
5.81861e-05
5.59324e-05
2.55015e-05
2.54756e-05
5.40112e-05
6.1984e-05
4.14616e-05
5.22259e-05
3.66635e-05
3.20214e-05
2.9328e-05
2.55115e-05
1.87932e-05
2.85889e-05
1.67244e-05
3.44791e-05
1.21954e-05
1.07208e-05
2.75615e-05
2.22329e-05
1.97644e-05
2.33068e-05
2.41929e-05
2.89961e-05
2.92653e-05
3.03849e-05
3.67414e-05
3.7094e-05
2.57609e-05
1.74485e-05
3.14404e-05
2.32166e-05
3.80912e-05
5.67518e-05
7.32993e-05
6.50263e-05
3.25023e-05
7.41697e-05
2.30434e-05
6.96465e-05
1.34783e-05
6.22881e-06
3.59117e-06
4.05334e-06
3.2908e-06
3.21957e-06
2.67737e-06
1.10921e-06
2.20592e-06
2.39963e-06
7.02401e-07
2.27302e-06
6.20035e-07
1.48447e-06
9.19143e-05
8.28728e-05
9.03878e-05
8.30972e-05
0.000141049
0.000140176
0.00017683
0.000169006
0.000192196
0.000273766
0.000595731
0.000807632
0.000878688
0.00170934
0.00173015
0.00257381
0.00253412
0.00268163
0.002031
0.00203424
0.0168383
0.032047
0.0938626
0.118584
9.20414
5.08579
7.88931
2.89641
0.000509041
0.000642554
0.000931272
11.9368
8.67708
13.5446
15.4531
2.67844
8.95897
17.453
15.4851
11.7444
12.7345
13.088
13.7345
28.235
28.0374
72.4834
148.887
147.346
168.481
169.28
185.182
184.189
195.039
196.602
208.629
212.163
191.674
201.067
240.675
244.978
260.909
252.793
0.000499879
0.000698841
0.000434662
0.000672676
0.000398289
0.000429651
5.95843e-05
6.02473e-05
7.02692e-05
4.32766e-05
3.73082e-05
6.53929e-05
6.60075e-05
5.19845e-05
4.55096e-05
3.32024e-05
6.55018e-05
9.13006e-05
6.99571e-05
7.09371e-05
6.78077e-05
4.19008e-05
3.83114e-05
4.06845e-05
6.13619e-05
0.000137895
5.89626e-05
4.92818e-05
1.93637e-05
1.32815e-05
7.73604e-05
7.16144e-05
4.04756e-05
3.85414e-05
5.31133e-05
6.44914e-05
5.49759e-05
5.65013e-05
5.2551e-05
5.07374e-05
7.0375e-05
5.33837e-05
7.69572e-05
6.38285e-05
7.10712e-05
8.67775e-05
6.28895e-05
9.45057e-05
8.07706e-05
0.000111855
7.32936e-05
0.000103121
1.41339e-05
9.43927e-06
7.64662e-06
1.79616e-06
3.55871e-06
3.64906e-06
2.56627e-06
1.43024e-06
2.76562e-06
7.50065e-07
2.30015e-06
8.30719e-07
7.69751e-07
6.22834e-07
7.34423e-05
0.000110155
1.44647e-05
8.73941e-05
0.000134743
0.000128409
0.000119069
0.000155634
0.00126178
0.000178006
0.00306796
0.000544219
0.00196015
0.0018507
0.00242011
0.00202241
0.0017658
0.00165165
0.0519461
0.0545259
0.0626987
0.0579658
0.0683449
0.0712837
0.064057
0.0577481
0.0493845
0.0360069
0.0302946
0.00861007
0.000727557
0.00105711
1.26131
0.925249
2.50662
15.1879
11.1088
20.5502
126.018
144.307
123.982
122.659
26.3327
18.2504
167.661
172.017
184.762
186.227
206.646
207.615
210.839
209.863
206.865
202.091
196.732
193.035
171.178
180.334
213.289
215.587
217.149
216.367
0.000808877
0.00223144
0.0017303
0.00111615
0.000395222
0.000588268
0.000351879
0.000180842
2.9982e-05
9.23222e-05
0.000109729
0.000475869
5.67911e-05
5.66784e-05
4.62171e-05
0.000100449
0.000105445
0.000106336
8.18261e-05
7.7885e-05
4.28157e-05
0.000152776
0.000107824
0.000480172
0.000387154
0.000574629
0.000582478
0.000533461
0.00235408
0.00136273
0.000331342
0.000217569
0.000118959
5.11179e-05
8.06826e-05
7.87673e-05
4.21125e-05
6.283e-05
6.73943e-05
9.50225e-05
9.70598e-05
0.000116412
8.85969e-05
0.000118066
9.76406e-05
0.000119356
0.000105577
0.00011476
0.000123121
0.000126999
0.000113643
0.000134581
1.98876e-06
0
9.39745e-07
8.81959e-07
1.8405e-06
2.71288e-07
3.51086e-07
1.16014e-07
1.88637e-07
1.87999e-07
2.66009e-07
0
1.81832e-08
6.4377e-06
6.92551e-07
1.15507e-05
1.07274e-05
1.13787e-05
3.80444e-05
0.000110446
6.8224e-05
0.00137407
0.00246551
0.000921017
0.00489995
0.00323311
0.00221189
0.00236258
0.00298618
0.00226599
0.0044607
0.00176358
0.00728517
0.0507974
0.056178
0.0706108
0.0863718
0.0638723
0.00793566
0.00809143
0.00670047
0.00686465
0.0447757
0.0354354
1.36058e-69
1.3597e-69
0.854721
0.0584341
0.137204
19.6585
25.2817
5.05462
198.917
201.75
39.8441
146.703
163.764
170.635
203.493
197.944
201.406
203.118
210.951
210.03
208.317
208.243
203.7
201.877
188.686
179.681
202.477
209.365
209.872
206.708