# vtk DataFile Version 3.0
vtk output
ASCII
DATASET POLYDATA
POINTS 24578 float
-151.53 81.83 75.23
-146.76 79.98 77.9
-147.26 82.51 76.57
-151.22 79.35 76.36
-146.3 77.32 78.47
-150.76 76.75 77.01
-146.01 74.82 79.56
-150.4 74.19 77.98
-145.43 72.07 79.86
-149.95 71.56 78.66
-145.02 69.6 80.58
-149.55 69.11 79.46
-144.64 67.21 81.53
-149.14 66.64 80.2
-144.27 64.77 82.34
-148.68 64.12 80.8
-144.06 62.18 83.1
-148.26 61.63 81.51
-143.83 59.57 83.96
-148.2 59.14 82.73
-143.54 56.98 84.63
-148.02 56.58 83.6
-143.3 54.28 84.95
-147.52 53.77 83.62
-142.71 51.53 84.98
-147.03 50.98 83.68
-142.34 49.05 85.71
-146.66 48.52 84.06
-142.24 46.57 86.6
-146.26 46.05 84.34
-145.97 43.63 84.94
-141.82 44.09 87.11
-141.56 41.44 87.04
-145.67 41.21 85.5
-140.98 38.76 87.5
-145.29 38.66 85.7
-140.75 36.16 87.85
-144.89 36.1 85.85
-144.62 33.53 86.3
-140.46 33.57 88.45
-140.13 30.94 88.56
-144.22 30.94 86.41
-143.81 28.2 86.49
-139.84 28.2 88.9
-143.44 25.45 86.68
-139.6 25.51 89.44
-143.18 22.67 87.12
-139.22 22.78 89.44
-142.9 19.88 87.51
-138.79 20.04 89.71
-142.6 17.15 87.83
-138.39 17.32 89.75
-137.91 14.61 89.73
-142.25 14.42 88.03
-141.99 11.68 88.46
-137.6 11.89 89.94
-141.61 8.95 88.57
-137.22 9.16 90.05
-141.13 6.27 88.48
-136.86 6.45 90.3
-140.68 3.58 88.47
-136.37 3.76 90.16
-140.25 0.89 88.51
-135.88 1.07 90.03
-139.71 -1.79 88.26
-135.64 -1.76 90.02
-135.64 -4.55 89.75
-140 -4.44 88.09
-135.69 -7.09 89
-140.34 -7.12 88.03
-135.79 -9.62 88.23
-140.37 -9.69 87.25
-135.84 -12.19 87.54
-140.43 -12.27 86.54
-135.99 -14.75 87
-140.5 -14.79 85.8
-136.21 -17.35 86.64
-140.62 -17.33 85.19
-136.42 -19.93 86.21
-140.85 -19.94 84.82
-136.49 -22.42 85.34
-140.79 -22.34 83.7
-136.45 -24.91 84.43
-140.78 -24.79 82.73
-136.55 -27.44 83.74
-140.84 -27.3 81.99
-136.57 -29.97 82.98
-140.97 -29.86 81.42
-136.73 -32.54 82.43
-141.02 -32.36 80.63
-136.76 -35.12 81.64
-141.09 -34.97 79.94
-141.32 -37.69 79.69
-136.83 -37.72 80.96
-141.45 -40.33 79.13
-136.9 -40.34 80.32
-137.11 -43 79.41
-141.48 -42.91 78.35
-141.57 -45.38 77.61
-137.04 -45.54 78.64
-141.59 -47.8 76.7
-137.03 -47.91 77.56
-141.86 -50.43 76.49
-137.15 -50.39 76.9
-141.9 -52.84 75.63
-137.27 -52.84 76.11
-141.91 -55.11 74.4
-137.53 -55.19 75.26
-137.48 -57.49 74.21
-141.9 -57.35 73.07
-142.03 -59.74 72.14
-137.7 -59.92 73.43
-142.25 -62.22 71.44
-137.97 -62.48 72.92
-142.57 -64.67 70.67
-138.15 -65.14 72.4
-142.87 -67.1 69.86
-138.34 -67.41 71.12
-143.16 -69.56 69.09
-138.58 -69.8 70.17
-143.42 -71.97 68.22
-138.72 -72 68.84
-143.42 -74.03 66.78
-138.71 -74.17 67.59
-143.52 -76.26 65.69
-138.9 -76.5 66.65
-143.64 -78.59 64.8
-139.03 -78.91 65.88
-143.64 -80.66 63.43
-139.36 -81.09 64.3
-142.41 80.53 78.87
-142.88 83.09 77.59
-141.83 77.87 79.86
-141.49 75.33 80.8
-140.97 72.61 81.19
-140.47 70.13 81.77
-140.01 67.69 82.47
-139.94 65.21 83.59
-139.84 62.72 84.64
-139.44 60.04 85.13
-139.12 57.42 85.86
-138.88 54.8 86.42
-138.56 52.14 86.78
-138.19 49.56 87.25
-137.83 46.99 87.76
-137.58 44.31 88.01
-137.31 41.63 88.23
-137.03 38.95 89.21
-136.57 36.22 89.77
-136.22 33.57 90.06
-135.88 30.91 90.36
-135.74 28.24 91.1
-135.47 25.56 91.56
-134.94 22.88 91.41
-134.47 20.19 91.43
-134.08 17.49 91.57
-133.61 14.8 91.52
-133.09 12.1 91.2
-132.71 9.37 91.23
-132.3 6.67 91.32
-131.94 3.96 91.53
-131.76 1.11 91.67
-131.5 -1.71 91.62
-131.31 -4.41 90.89
-131.1 -7.09 90.13
-131.35 -9.7 89.79
-131.55 -12.29 89.33
-131.63 -14.81 88.62
-131.74 -17.34 87.96
-131.85 -19.85 87.19
-132.06 -22.42 86.66
-132.19 -25.02 86.17
-132.25 -27.57 85.48
-132.26 -30.09 84.65
-132.44 -32.72 84.26
-132.56 -35.36 83.72
-132.63 -37.97 83.04
-132.75 -40.58 81.94
-132.83 -43.16 80.72
-132.77 -45.71 79.94
-132.75 -48.3 79.25
-132.77 -50.64 78.12
-132.8 -52.99 77
-132.95 -55.32 76.2
-133.13 -57.69 75.53
-133.33 -60.11 74.69
-133.5 -62.48 73.72
-133.64 -65.09 73
-133.72 -67.59 72.04
-133.86 -69.81 70.74
-134.01 -72.03 69.43
-134.18 -74.44 68.63
-134.35 -76.86 67.84
-134.77 -79.33 66.76
-135.07 -81.54 65.2
-138.04 81.11 79.93
-138.51 83.66 78.64
-137.48 78.45 80.95
-136.81 75.7 81.58
-136.53 73.2 82.68
-136.2 70.85 83.66
-136.01 68.35 84.53
-135.78 65.76 85.17
-135.49 63.19 85.82
-135.19 60.56 86.38
-134.98 57.99 87.45
-134.76 55.37 88.25
-134.53 52.77 88.88
-134 50.11 89.1
-133.65 47.3 89.03
-133.3 44.56 89.42
-133.29 41.92 90.17
-132.89 39.2 91
-132.5 36.43 91.58
-132.05 33.68 92.21
-131.7 30.98 92.36
-131.44 28.31 92.66
-131.04 25.67 93.02
-130.62 23.02 93.01
-130.15 20.36 93.11
-129.82 17.66 93.35
-129.27 14.97 93.05
-128.74 12.27 92.73
-128.4 9.55 92.87
-127.96 6.85 92.86
-127.84 4 93.22
-127.59 1.17 93.17
-127.27 -1.64 92.97
-127.25 -4.36 92.57
-127.15 -7.08 92.07
-127.17 -9.83 91.83
-127.29 -12.38 91.16
-127.29 -14.86 90.23
-127.44 -17.42 89.6
-127.57 -19.97 88.96
-127.76 -22.53 88.35
-127.82 -25.1 87.72
-127.85 -27.64 86.95
-127.95 -30.27 86.46
-128.2 -32.95 86.24
-128.25 -35.54 85.49
-128.5 -38.26 84.8
-128.59 -40.83 83.55
-128.62 -43.36 82.3
-128.5 -45.86 81.36
-128.57 -48.51 80.64
-128.51 -50.96 79.6
-128.63 -53.39 78.68
-128.82 -55.89 78.24
-129.15 -58.39 77.85
-129.06 -60.46 76.29
-128.99 -62.4 74.44
-128.98 -64.79 73.19
-129.01 -67.15 71.96
-128.97 -69.58 70.84
-129.28 -72.05 69.98
-129.48 -74.55 69.36
-130.01 -77.21 68.65
-130.42 -79.71 67.63
-130.79 -82.03 66.21
-133.82 81.84 81.46
-134.36 84.47 80.38
-133.19 79.09 82.22
-132.49 76.28 82.7
-131.95 73.65 83.71
-131.93 71.29 85
-131.87 68.9 86.17
-131.5 66.27 86.57
-131.13 63.64 86.94
-130.87 61.02 87.58
-130.68 58.45 88.47
-130.46 55.86 89.34
-130.18 53.24 90.02
-129.88 50.44 90.31
-129.64 47.69 90.79
-129.42 44.94 91.36
-129.23 42.2 92.03
-128.71 39.37 92.41
-128.45 36.65 93.48
-128.03 33.86 94.03
-127.47 31.03 94.24
-127.19 28.41 94.71
-126.88 25.78 95.12
-126.32 23.16 94.88
-125.8 20.53 94.74
-125.36 17.84 94.64
-124.86 15.16 94.43
-124.49 12.44 94.52
-124.2 9.71 94.8
-123.95 6.88 94.78
-123.68 4.05 94.73
-123.4 1.23 94.62
-123.18 -1.6 94.69
-123.37 -4.41 94.84
-123.31 -7.12 94.32
-123.16 -9.79 93.63
-122.95 -12.42 92.76
-123.09 -14.99 92.12
-123.27 -17.57 91.56
-123.4 -20.13 90.9
-123.5 -22.66 90.14
-123.53 -25.22 89.42
-123.57 -27.78 88.7
-123.68 -30.42 88.22
-123.74 -33.02 87.62
-123.94 -35.69 86.77
-124.14 -38.36 85.91
-124.27 -40.96 84.88
-124.51 -43.67 84.17
-124.44 -46.18 83.04
-124.36 -48.68 81.9
-124.32 -51.14 80.87
-124.34 -53.66 80.01
-124.65 -56.22 79.72
-124.85 -58.64 79.12
-124.76 -60.62 77.46
-124.57 -62.46 75.52
-124.49 -64.69 73.94
-124.51 -67.1 72.74
-124.57 -69.65 71.8
-124.65 -72.26 70.99
-125.14 -74.86 70.13
-125.57 -77.36 69.04
-126.01 -79.84 67.96
-126.39 -82.16 66.58
-129.58 82.52 82.46
-130.23 85.32 82
-128.9 79.77 83.09
-128.4 77.11 83.84
-127.98 74.41 84.96
-127.56 71.77 85.9
-127.33 69.24 86.57
-127.15 66.76 87.43
-126.86 64.14 88.01
-126.52 61.49 88.81
-126.36 58.96 89.84
-126.14 56.38 90.8
-125.97 53.53 91.15
-125.51 50.64 91.5
-125.42 47.93 92.31
-125.22 45.19 93.14
-125.05 42.45 93.81
-124.64 39.66 94.38
-124.31 36.88 95.2
-123.77 34.05 95.42
-123.26 31.23 95.69
-122.78 28.52 96.11
-122.44 25.87 96.38
-121.98 23.27 96.26
-121.42 20.65 96.06
-121.04 17.96 96.08
-120.68 15.29 96.36
-120.38 12.57 96.56
-120.17 9.75 96.72
-119.91 6.93 96.66
-119.55 4.12 96.37
-119.27 1.3 96.28
-119.07 -1.54 96.32
-119.25 -4.36 96.51
-119.22 -7.1 96.08
-119.04 -9.77 95.31
-119 -12.5 94.8
-118.91 -15.21 94.19
-119.08 -17.79 93.59
-119.2 -20.38 92.98
-119.3 -22.91 92.18
-119.31 -25.47 91.43
-119.31 -28 90.63
-119.33 -30.55 89.87
-119.45 -33.15 88.84
-119.6 -35.8 87.91
-119.83 -38.5 87.17
-120.05 -41.2 86.43
-120.26 -43.87 85.57
-120.32 -46.42 84.63
-120.24 -48.94 83.59
-120.24 -51.46 82.7
-120.29 -53.99 81.83
-120.1 -56.26 80.6
-120.22 -58.48 79.45
-120.33 -60.66 78.2
-120.24 -62.81 76.84
-120.26 -65.2 75.6
-120.18 -67.48 74.2
-120.23 -70.02 73.25
-120.52 -72.67 72.16
-120.81 -75.19 70.96
-121.18 -77.58 69.65
-121.52 -79.9 68.24
-121.92 -82.27 66.97
-125.25 83.17 83.41
-125.88 85.88 82.84
-124.6 80.45 83.94
-124.22 77.72 84.75
-123.94 75.09 85.93
-123.46 72.43 86.81
-122.93 69.71 87.46
-122.73 67.14 88.15
-122.59 64.64 89.06
-122.25 62 89.9
-121.95 59.4 90.9
-121.96 56.7 91.92
-121.73 53.8 92.2
-121.47 50.99 93.04
-121.27 48.22 94.07
-121.07 45.45 94.8
-120.88 42.69 95.58
-120.53 39.9 96.26
-120.06 37.06 96.59
-119.52 34.23 96.77
-119.19 31.45 97.53
-118.64 28.71 97.7
-118.07 25.97 97.81
-117.65 23.36 97.86
-117.2 20.75 97.82
-116.76 18.09 97.81
-116.45 15.42 98.16
-116.25 12.62 98.27
-115.94 9.82 98.09
-115.72 7.01 98.16
-115.43 4.19 98.08
-115.24 1.34 98.13
-115.02 -1.5 98.11
-115.03 -4.27 97.86
-115.05 -7.04 97.62
-115.01 -9.78 97.12
-114.91 -12.5 96.46
-114.83 -15.21 95.87
-114.79 -17.94 95.36
-114.95 -20.55 94.79
-115.09 -23.14 94.17
-115.09 -25.69 93.41
-115.09 -28.25 92.66
-115.19 -30.82 91.55
-115.34 -33.43 90.58
-115.56 -36.16 89.86
-115.65 -38.76 88.81
-115.73 -41.32 87.6
-115.89 -43.96 86.62
-115.94 -46.5 85.75
-115.97 -49.02 84.82
-116.06 -51.62 84.1
-116.16 -54.22 83.41
-116 -56.46 81.98
-115.78 -58.59 80.34
-115.73 -60.7 78.9
-115.82 -63.01 77.89
-115.91 -65.56 77.02
-115.85 -67.86 75.66
-116.07 -70.39 74.35
-116.45 -73.24 73.66
-116.73 -75.78 72.45
-116.87 -78.01 70.66
-117.13 -80.1 68.85
-117.46 -82.37 67.36
-120.93 83.58 83.84
-121.35 86.18 83.25
-120.43 80.92 84.76
-120.24 78.29 85.68
-119.85 75.73 86.84
-119.39 73.08 87.68
-118.97 70.39 88.56
-118.52 67.71 89.38
-118.27 65.1 89.93
-117.89 62.43 90.71
-117.77 59.68 91.68
-117.62 56.89 92.64
-117.53 54.11 93.38
-117.25 51.28 94.27
-116.99 48.44 95.07
-116.61 45.56 95.63
-116.37 42.76 96.18
-116.01 39.98 96.85
-115.62 37.17 97.41
-115.23 34.39 98.02
-114.97 31.62 98.96
-114.53 28.91 99.33
-113.9 26.15 99.26
-113.4 23.47 99.53
-113.04 20.85 99.72
-112.61 18.2 99.71
-112.34 15.45 99.77
-112.11 12.66 99.75
-111.7 9.9 99.43
-111.54 7.08 99.65
-111.31 4.26 99.65
-111.1 1.42 99.6
-110.91 -1.42 99.76
-110.84 -4.17 99.3
-110.76 -6.92 98.71
-110.8 -9.71 98.47
-110.76 -12.46 97.96
-110.67 -15.19 97.39
-110.65 -17.93 96.92
-110.56 -20.62 96.27
-110.66 -23.19 95.59
[...]
CELL_DATA 49152
SCALARS Temperature float 1
LOOKUP_TABLE default
165.021
199.749
259.235
247.253
192.317
229.461
280.232
221.176
210.764
184.926
136.06
223.665
213.449
257.115
239.59
255.2
240.449
83.3501
221.263
127.98
235.739
282.607
283.709
277.577
227.688
275.321
231.428
310.108
293.957
295.153
314.835
258.084
273.544
291.398
279.664
304.715
286.691
284.62
309.281
312.046
313.311
310.371
317.929
313.822
318.157
321.939
306.006
307.309
302.516
304.916
308.808
286.573
272.167
274.237
281.044
281.051
292.842
290.356
303.482
304.206
295.609
296.634
302.594
300.831
307.152
291.041
320.494
251.505
298.134
298.983
295.022
296.097
287.425
305.165
285.072
307.697
298.414
292.826
316.314
333.787
326.851
330.116
319.176
323.281
324.228
309.717
308.329
326.488
325.998
319.279
299.094
304.784
298.515
299.701
308.284
304.241
303.307
303.868
310.421
312.265
261.167
271.626
284.296
283.167
306.672
302.088
313.109
330.192
314.595
312.384
308.588
305.687
316.02
312.678
323.434
329.832
308.701
311.722
308.023
313.922
320.667
319.216
312.063
309.764
308.132
306.163
332.57
332.776
55.2
55.7935
143.738
248.554
206.984
131.329
251.696
265.604
242.479
209.342
212.963
83.1774
93.8463
206.384
138.975
242.852
267.3
187.727
210.186
220.023
230.621
266.145
265.252
304.387
282.229
250.732
265.717
161.478
252.595
205.364
238.722
277.749
247.634
244.253
282.971
282.121
273.87
278.581
288.596
286.309
283.237
276.637
290.416
291.525
321.919
306.976
296.531
298.279
291.293
299.882
304.911
302.836
314.839
261.324
273.361
264.075
253.88
255.58
271.836
269.092
289.713
287.388
295.413
295.696
320.81
281.352
305.999
303.363
280.747
317.225
303.166
321.972
322.579
309.939
315.246
290.013
310.195
280.08
285.7
314.67
297.828
329.684
320.988
320.377
326.274
321.989
305.237
316.757
316.475
333.045
329.004
329.206
339.548
317.727
334.991
315.039
314.478
314.525
326.334
322.625
320.524
326.04
311.555
316.107
303.201
303.313
315.211
309.996
312.978
313.765
297.583
304.084
279.1
281.695
309.905
307
306.667
310.98
312.423
312.304
312.269
306.65
312.673
310.456
310.057
312.484
332.93
332.793
64.7788
57.7702
163.323
178.734
38.127
50.5861
58.4927
268.845
207.612
281.1
256.519
286.937
285.247
205.61
257.229
104.221
230.296
247.977
169.216
254.872
247.067
276.325
272.086
300.273
309.297
283.296
305.536
246.263
256.381
268.952
220.957
299.225
259.419
260.071
277.906
277.653
291.189
288.849
301.305
302.834
265.706
272.628
262.094
264.083
286.916
302.135
289.854
296.737
289.683
288.701
314.824
293.781
306.019
305.868
288.482
287.532
291.12
291.866
279.178
277.323
289.658
291.058
291.242
292.241
297.649
323.772
315.295
333.004
313.372
313.427
327.164
312.472
331.71
317.413
313.275
316.422
315.246
323.962
316.868
311.263
317.101
305.868
318.319
312.525
303.434
328.394
309.515
306.364
328.938
314.729
317.458
322.807
338.79
330.846
336.456
333.349
323.016
324.044
313.719
313.601
327.596
333.328
324.708
338.814
328.005
321.822
331.147
324.768
364.482
325.491
355.441
302.505
288.26
290.984
275.715
278.269
284.219
282.417
294.813
288.692
286.829
283.918
293.233
290.175
309.427
308.627
331.045
329.804
252.558
207.977
258.685
207.798
257.229
46.921
61.7117
64.0209
73.752
188.081
61.2014
241.038
278.17
241.002
264.147
212.501
213.86
232.646
185.536
66.8917
156.269
189.5
209.079
216.369
251.082
267.792
243.821
305.536
274.393
296.553
269.38
270.491
266.611
268.846
251.683
247.749
281.148
281.496
298.94
299.167
288.254
286.123
294.757
293.671
324.366
304.681
311.464
290.775
299.239
261.658
290.169
298.948
277.278
315.915
294.786
293.326
308.352
307.787
288.925
292.022
291.663
292.16
296.979
295.166
282.77
328.212
332.267
332.455
338.385
308.464
331.76
314.865
313.393
333.755
318.891
323.892
325.057
324.129
328.498
317.551
323.586
317.499
321.008
324.434
312.362
313.469
299.586
305.309
312.325
310.381
311.909
298.39
313.81
327.005
306.896
342.204
340.87
333.635
338.388
309.621
323.296
324.47
319.138
318.776
299.297
296.102
300.448
304.657
345.155
339.036
349.417
342.825
334.415
313.209
312.396
312.446
309.516
308.622
304.228
303.695
295.281
297.062
288.688
294.235
291.114
291.881
308.205
307.976
281.701
151.569
224.349
189.072
182.496
253.633
192.19
57.3806
44.2388
68.1725
48.51
62.813
62.8184
217.354
190.222
241.85
194.931
225.661
152.886
210.179
203.009
223.494
265.157
211.739
251.498
252.753
186.472
261.349
254.568
251.922
262.538
262.407
287.86
286.78
253.263
254.815
274.257
275.635
272.245
280.612
257.572
258.777
254.702
256.937
284.585
298.251
296.536
289.853
278.964
292.331
298.621
295.06
303.415
302.357
298.757
299.265
307.34
307.581
317.576
297.672
300.34
300.247
292.096
292.239
278.765
278.282
310.392
317.212
326.68
321.655
314.019
338.513
329.625
326.838
324.871
322.432
324.956
327.722
332.628
330.709
331.477
329.508
332.536
327.122
328.713
308.915
327.42
302.624
313.72
307.176
302.382
311.303
306.362
327.063
320.187
309.848
321.421
334.51
332.208
337.351
329.627
338.484
332.739
332.477
307.763
319.013
288.316
296.682
301.445
331.552
321.343
354.48
332.543
351.411
347.427
335.045
325.742
325.263
319.787
320.598
311.155
314.65
309.937
312.376
301.981
305.531
304.289
303.333
203.445
231.088
224.135
204.141
163.811
191.594
56.7618
141.744
38.0993
40.4809
52.4637
52.1784
55.5651
57.1864
61.8596
217.889
184.676
198.167
49.4298
55.7302
52.7509
153.142
252.016
238.279
179.884
279.994
239.812
238.216
252.601
253.472
256.36
255.391
274.912
274.063
265.186
268.048
278.045
273.702
270.409
267.923
289.192
290.227
280.849
282.418
283.247
300.243
296.346
312.287
300.05
300.355
284.881
283.999
291.337
291.688
306.293
272.498
285.271
284.321
292.795
311.172
302.231
301.088
301.683
302.084
307.543
262.029
289.117
305.742
308.522
328.747
324.255
313.91
317.186
318.63
314.495
316.5
315.326
319.023
319.066
330.614
330.693
329.817
329.949
332.875
339.206
324.676
328.724
332.504
320.856
334.367
338.653
318.58
335.193
303.753
313.483
304.291
307.727
311.846
312.182
320.622
315.155
313.604
319.875
318.22
344.391
336.146
346.406
317.723
328.797
315.12
320.074
317.509
323.616
321.274
338.636
341.5
325.689
326.799
318.537
314.921
334.248
334.176
351.62
325.399
342.188
316.918
311.239
312.835
49.3799
51.3273
44.3252
209.796
46.7253
191.315
48.4771
50.772
180.797
167.368
165.881
236.657
219.34
223.792
238.851
66.449
156.268
62.7508
64.9864
65.358
68.7094
71.3525
76.323
255.659
198.272
208.354
173.09
174.81
216.938
96.8735
79.9073
87.15
85.9386
89.1534
87.5828
219.73
236.777
233.89
216.067
214.089
281.281
280.268
295.549
295.799
287.181
285.99
300.2
297.993
308.155
308.091
289.636
291.74
287.898
288.967
305.406
290.718
276.282
274.898
292.582
291.972
288.841
289.519
288.269
287.032
311.427
293.641
308.815
277.269
276.802
301.839
302.174
314.208
310.934
312.291
306.908
310.229
316.092
306.196
311.685
306.437
314.195
313.54
309.292
316.111
318.264
332.192
326.953
327.677
317.027
318.282
336.482
326.395
337.578
325.473
318.462
315.865
314.765
314.092
318.417
315.041
305.84
306.43
301.843
302.893
318.89
336.588
339.291
346.176
335.205
347.103
337.517
329.245
321.896
323.918
329.718
329.785
329.098
317.746
289.946
290.352
309.526
307.045
343.437
334.797
338.601
335.319
324.676
325.82
42.1566
46.6536
39.9621
40.8867
39.5862
42.2547
39.6167
40.78
49.7676
51.3307
44.0841
164.866
134.611
206.014
237.041
213.113
147.569
53.1761
56.462
62.5973
69.1997
72.2251
129.03
159.296
108.459
134.235
201.034
85.861
203.558
152.201
98.3587
89.9798
90.0675
118.519
214.283
213.086
222.431
219.297
216.864
221.006
235.024
234.895
264.6
280.674
257.474
257.351
261.721
259.621
287.211
284.415
293.928
294.157
302.223
289.915
296.563
313.91
286.836
287.237
293.195
293.99
290.101
290.561
275.836
278.488
277.729
294.926
291.94
307.418
295.914
286.643
295.851
303.504
295.078
315.392
299.151
319.247
324.971
327.118
339.845
314.193
320.96
316.353
317.089
307.185
312.374
314.342
317.735
316.216
311.648
299.572
318.879
323.293
321.736
335.663
321.357
323.53
322.756
320.13
325.385
322.626
320.334
310.747
311.661
312.986
312.692
327.567
329.072
347.609
335.409
344.335
348.336
334.283
340.819
328.403
332.692
334.812
343.733
325.386
297.737
300.845
274.205
278.209
300.29
300.805
318.8
318.851
333.087
331.059
12.3748
28.1975
26.6412
27.636
39.1539
31.3207
28.2969
30.5094
50.5994
46.0631
60.2024
58.0529
64.8817
67.655
65.7323
237.554
73.2995
206.46
243.756
205.195
220.722
158.867
180.133
157.936
109.665
145.54
180.372
225.913
193.527
272.637
250.076
264.535
244.427
244.948
257.872
257.76
239.52
239.86
267.527
267.76
266.87
265.483
300.157
299.077
303.068
303.874
271.642
273.068
260.032
259.606
276.998
274.733
296.226
295.958
297.756
297.189
286.795
287.359
296.249
293.036
309.236
310.265
309.295
310.119
302.267
296.88
303.308
301.564
299.548
296.844
300.701
300.832
294.719
298.006
296.108
288.356
294.739
317.731
321.799
342.077
337.737
331.098
342.383
317.798
319.205
315.456
317.37
321.671
320.228
313.473
324.379
325.614
319.802
331.569
331.553
318.362
318.579
318.915
320.323
324.745
316.896
323.873
329.785
323.954
337.172
311.777
321.601
319.91
326.785
327.009
340.272
330.664
327.322
332.722
331.646
328.229
337.998
340.039
328.325
327.944
330.484
331.001
328.101
328.325
322.174
321.925
322.158
322.471
30.2637
25.776
41.4352
44.3435
45.9076
50.8212
47.1849
43.6476
45.5025
55.9994
52.8547
57.5885
49.4322
49.8715
44.1215
49.6446
113.188
101.627
215.472
215.116
269.751
265.941
290.889
292.209
271.901
276.196
244.403
244.354
240.054
240.448
253.472
242.034
234.235
234.381
246.569
246.262
238.531
240.125
253.42
252.828
249.136
247.49
287.987
288.352
311.303
304.252
289.374
289.245
276.083
275.528
283.431
284.873
291.652
291.986
287.681
286.864
285.023
284.776
275.06
273.799
306.601
307.013
310.748
310.766
303.102
302.798
309.294
303.573
305.578
296.42
291.641
304.357
298.194
298.688
310.72
287.451
312.28
263.264
268.678
303.023
290.391
327.114
330.682
339.205
331.509
324.025
323.621
323.927
327.347
322.74
323.253
334.451
330.911
328.54
330.843
337.577
332.018
331.973
333.307
332.381
336.786
319.917
328.763
330.232
336.113
343.317
329.536
330.667
334.76
326.274
330.254
348.564
344.013
338.463
342.635
336.93
339.254
348.23
343.955
331.466
336.591
332.013
347.755
343.71
368.288
331.805
349.997
316.605
36.8097
37.2898
35.5852
42.2666
38.8908
44.1072
36.9744
41.9286
34.3991
32.0885
111.27
219.799
214.537
218.789
240.245
240.413
243.008
243.575
228.26
228.283
249.791
250.49
284.488
284.03
299.944
303.005
300.456
251.168
264.287
232.386
235.077
255.861
243.795
246.141
219.326
219.8
240.534
240.511
234.94
235.063
180.539
183.049
230.526
230.478
236.087
302.402
282.158
280.545
284.729
285.502
293.631
294.101
291.58
291.761
279.382
280.024
271.375
271.66
249.224
251.262
285.709
285.243
294.4
293.893
286.4
297.204
294.545
310.971
306.892
312.176
309.048
298.402
306.39
292.528
297.543
311.987
317.03
326.613
330.161
288.802
292.793
291.443
293.664
333.189
328.364
331.256
328.025
325.839
329.65
329.171
327.36
327.04
328.433
330.5
329.428
333.124
336.865
325.904
329.207
325.546
330.944
328.86
332.069
324.5
327.869
334.39
331.34
333.027
337.262
336.845
335.679
336.384
340.356
341.569
341.964
343.797
342.953
342.942
341.62
345.068
324.484
327.703
314.725
313.913
337.965
357.79
364.327
344.325
23.0794
9.35323
24.3512
25.0945
22.4791
21.6957
14.49
13.6261
37.8491
45.3475
48.7661
42.1169
45.3506
47.0999
208.409
210.469
218.081
221.636
220.688
219.647
241.099
240.443
232.325
232.169
267.844
262.052
307.501
301.426
321.345
323.474
332.739
269.845
286.942
287.636
263.271
264.334
249.383
249.422
245.292
245.472
237.772
238.289
238.644
238.53
248.501
247.924
241.358
241.611
257.94
258.591
250.085
273.272
272.531
272.38
272.305
272.34
265.037
265.339
254.202
256.059
274.431
272.348
290.051
288.719
285.388
296.475
304.258
295.549
295.379
304.421
311.517
297.392
307.672
291.807
284.405
292.814
304.904
308.742
315.035
320.954
308.654
298.044
301
297.936
305.085
321.743
315.002
324.57
325.507
328.593
329.739
323.848
327.791
322.861
326.182
320.041
325.348
325.749
324.513
321.664
322.497
327.744
331.357
328.542
328.335
327.109
328.097
327.527
332.145
333.5
331.426
332.763
335.798
338.379
338.586
340.199
342.215
338.34
340.941
333.653
337.129
324.595
306.817
308.691
315.736
329.361
340.232
355.963
5.72767
5.37649
17.237
7.73823
8.87751
12.2609
14.8369
200.951
233.161
233.19
37.6581
37.2313
51.8081
50.6944
41.2624
39.3609
44.2388
48.0415
32.2384
48.1506
163.746
171.859
192.342
197.737
242.274
236.452
293.893
287.726
344.875
329.994
356.182
310.829
297.921
297.073
278.262
277.934
271.824
272.418
259.836
260.154
266.881
266.997
257.979
258.334
228.237
229.015
190.64
193.039
223.218
221.659
249.436
248.784
269.715
269.414
280.736
280.542
282.177
282.062
283.729
284.467
279.306
279.014
286.353
285.326
293.428
284.582
302.626
296.716
295.909
287.582
296.721
304.975
311.28
304.147
294.6
282.621
307.026
293.208
289.852
313.063
297.912
307.76
305.122
305.11
310.054
310.666
310.601
313.869
320.064
320.662
325.145
322.447
324.594
321.839
325.315
319.905
316.857
326.044
322.944
326.865
332.131
320.344
325.223
328.51
328.149
325.707
325.887
326.13
326.653
333.853
334.843
330.345
333.268
334.674
336.636
335.684
337.724
339.315
340.908
338.731
341.027
335.53
330.955
316.704
329.575
317.182
324.898
346.225
3.01765
4.75157
4.61073
7.07006
9.29433
12.9515
153.351
154.886
220.037
221.226
42.412
234.808
40.7388
224.542
27.926
27.5772
44.612
45.8542
45.2314
42.3527
40.239
41.3078
45.3338
42.5175
56.0075
60.4629
42.4421
33.4445
294.493
280.427
320.035
320.031
301.18
262.158
224.952
223.053
225.325
225.001
213.486
213.454
215.769
224.393
230.13
237.96
233.047
232.777
247.002
246.21
254.506
252.256
283.09
281.264
303.531
303.704
303.203
303.653
288.624
288.458
296.84
297.082
288.039
288.986
281.594
282.222
296.106
279.091
286.731
298.428
288.259
299.095
301.314
304.841
296.963
327.469
321.495
312.59
332.795
321.408
315.304
309.706
312.76
300.319
304.573
301.242
310.304
302.598
301.244
304.45
318.334
307.61
312.945
313.603
309.154
318.656
312.663
327.118
324.592
318.941
324.147
316.979
321.008
328.726
325.34
329.342
336.32
324.58
323.203
323.836
320.077
328.273
335.811
330.219
332.01
329.498
333.295
331.178
331.882
333.783
333.117
339.826
338.857
343.289
340.305
332.242
338.91
335.329
335.732
337.11
3.10507
4.18689
4.59471
2.18325
5.73076
2.32828
12.6561
3.28176
5.90258
18.8882
97.2263
122.285
222.966
223.016
235.21
232.178
237.993
31.8386
28.0976
43.9335
45.6068
16.5089
41.9135
20.1655
46.5743
38.4878
29.4115
30.87
45.1692
197.069
261.003
286.599
162.161
287.329
239.333
238.116
276.542
202.29
205.788
205.815
196.054
195.435
229.859
229.27
245.735
244.966
253.208
252.834
228.927
228.621
243.154
243.018
280.879
281.012
293.3
293.323
279.394
279.584
285.711
285.746
282.477
282.473
279.47
279.95
284.9
295.869
282.849
302.171
302.88
294.358
299.34
304.829
294.511
302.275
320.471
305.858
319.889
325.608
312.063
314.055
315.648
312.729
315.683
305.388
312.751
312.374
310.751
303.933
316.106
322.28
323.782
320.472
320.22
312.998
306.646
316.246
321.608
320.758
324.627
321.359
312.411
329.547
337.444
322.52
334.286
328.861
321.189
321.901
323.603
313.429
319.94
332.028
332.705
329.146
330.872
332.647
332.255
332.378
331.372
333.99
331.49
340.973
344.5
335.215
335.278
339.971
338.408
338.691
2.35677
0.218655
0.0871429
0.0939255
0.317784
0.257956
0.375768
0.332683
1.94419
2.06629
1.55704
2.35393
0
0
10.0273
10.2319
6.19458
11.152
5.35204
14.5836
19.4418
20.1867
12.1913
20.0287
22.1758
25.4741
38.0766
40.4961
51.5169
57.1719
56.2602
235.525
88.6501
84.8557
71.4731
67.9005
218.843
245.241
212.577
211.512
216.437
215.326
237.925
237.594
239.092
239.133
236.992
237.189
193.725
196.468
145.634
148.582
228.07
227.434
258.113
258.099
253.359
253.46
257.892
257.648
267.125
267.121
268.858
268.878
260.805
285.704
272.811
282.151
293.406
295.567
296.974
294.654
294.308
280.331
282.969
322.834
326.91
329.492
333.642
305.307
307.858
307.903
310.537
308.376
307.046
312.999
296.766
322.104
325.298
333.14
344.717
329.343
327.531
327.157
330.232
305.628
314.465
317.62
319.564
323.306
323.273
301.61
316.295
324.898
321.819
336.957
327.935
326.407
332.195
324.195
328.55
321.777
324.636
332.548
332.226
332.781
335.403
330.921
332.183
327.537
327.252
325.127
331.281
336.878
334.806
329.568
330.105
331.319
0.858551
0.195837
0.0980087
0.103401
0.598907
0.642842
0.694676
0.981569
0.934569
1.07196
1.23034
1.0647
1.60992
1.09156
1.34984
8.65006
1.87403
6.90867
7.17618
9.10269
17.2564
16.679
20.5063
18.0086
27.8584
27.1548
32.3572
34.1955
37.3955
41.2867
40.3486
42.2501
44.1372
54.7874
48.8188
52.5127
55.104
240.451
184.426
181.642
199.581
199.1
220.832
221.04
219.51
219.517
223.299
223.101
227.956
227.799
228.555
229.129
242.945
244
248.33
248.339
250.08
249.38
250.86
250.458
265.69
265.147
275.551
275.506
278.041
259.209
276.616
244.133
255.258
274.3
274.301
279.947
277.647
278.521
271.555
273.697
295.611
311.746
320.849
315.803
301.862
301.251
299.042
308.242
305.133
306.037
289.699
293.072
320.775
304.702
325.42
324.526
304.849
319.485
321.715
323.548
323.245
314.911
317.897
319.256
322.846
319.402
323.674
321.762
318.462
326.596
328.977
319.798
326.912
323.936
324.139
324.628
321.267
326.792
330.751
330.317
332.386
334.287
336.539
330.08
331.092
323.802
323.629
334.538
335.255
334.762
337.47
327.696
0.444678
0.171848
0.106789
0.276157
0.499448
0.209596
0.393458
0.404071
0.361285
0.323791
0.361849
0.362338
0.697582
0.363718
0.939698
0.321333
0.729417
1.64136
8.2191
7.30641
25.0738
13.8607
26.336
22.2445
23.6296
25.1303
22.5873
25.0025
22.7673
23.3991
24.5703
26.4379
39.1136
41.413
48.6433
48.902
53.5469
163.048
192.251
193.008
185.483
185.85
212.591
211.196
235.269
234.997
238.296
238.784
225.012
225.278
206.594
206.836
240.777
239.874
257.688
256.927
260.76
260.446
260.904
261.176
261.991
261.997
272.173
272.143
276.91
274.212
284.547
276.44
282.914
256.63
267.598
267.619
262.593
273.222
286.56
245.904
263.3
284.746
284.873
321.937
305.758
306.077
309.444
298.435
305.177
296.345
279.439
278.495
310.298
312.007
317.303
330.076
313.076
308.503
321.116
316.979
312.916
321.645
322.943
317.642
321.282
322.598
324.712
325.339
322.578
319.816
319.874
332.242
337.582
331.093
331.502
327.892
326.562
323.186
329.595
330.186
331.885
332.19
334.074
336.711
334.354
334.76
333.874
328.276
335.847
332.734
336.919
333.305
0.201097
0.246545
0.0742747
0.208883
0.181379
0.174901
0.345634
0.260828
0.296728
0.281908
0.296052
0.27913
0.277983
0.320088
0.726685
1.23248
0.964814
1.33864
2.09032
1.97289
18.4827
26.2198
12.7516
22.8377
7.75368
14.2419
11.3955
11.8994
13.9972
13.146
23.8759
29.4857
35.5975
162.982
172.405
172.161
47.0231
40.5255
41.5779
43.9181
154.955
152.417
181.313
180.556
218.035
216.642
255.138
255.553
240.679
240.632
197.825
197.848
219.427
217.745
251.128
249.343
268.201
268.71
264.916
265.369
257.808
258.09
263.623
263.521
269.965
272.157
276.265
285.554
284.533
289.395
285.98
285.116
288.374
274.496
286.316
297.274
294.104
289.511
297.93
300.19
304.533
298.84
305.305
300.278
302.66
299.695
284.969
271.088
290.225
315.083
318.605
323.31
317.903
307.033
316.868
318.251
315.415
308.487
310.534
318.489
321.011
317.792
320.961
320.437
314.739
320.734
322.874
315.83
329.766
327.869
321.188
328.312
327.761
322.457
327.189
327.297
329.066
329.645
330.99
332.503
331.449
331.343
331.366
329.882
336.12
333.148
335.774
335.89
0.111201
0.175521
0.16782
0.180225
0.180468
0.189322
0.178734
0.189716
0.245107
0.221596
0.243513
0.28708
0.260906
0.664414
0.942829
1.10283
1.65132
1.3667
2.08496
2.32055
2.6307
3.81571
4.09533
6.04132
8.38906
9.46535
10.6448
11.2268
12.4696
17.7112
25.0591
204.02
208.419
207.837
187.647
187.115
153.846
35.3349
42.4769
43.8527
42.1373
46.0936
62.0888
42.5134
145.581
150.449
215.834
233.232
239.909
239.994
223.716
223.188
234.034
233.504
254.431
255.524
261.259
261.553
260.412
259.911
266.4
266.631
265.41
265.584
269.261
267.328
265.96
278.433
279.549
284.708
286.234
282.149
289.959
280.537
282.781
285.946
288.908
288.909
293.832
295.965
301.851
301.467
306.215
303.699
302.558
304.152
300.81
277.039
294.368
283.139