# vtk DataFile Version 3.0
vtk output
ASCII
DATASET POLYDATA
POINTS 24578 float
-151.53 81.83 75.23
-146.76 79.98 77.9
-147.26 82.51 76.57
-151.22 79.35 76.36
-146.3 77.32 78.47
-150.76 76.75 77.01
-146.01 74.82 79.56
-150.4 74.19 77.98
-145.43 72.07 79.86
-149.95 71.56 78.66
-145.02 69.6 80.58
-149.55 69.11 79.46
-144.64 67.21 81.53
-149.14 66.64 80.2
-144.27 64.77 82.34
-148.68 64.12 80.8
-144.06 62.18 83.1
-148.26 61.63 81.51
-143.83 59.57 83.96
-148.2 59.14 82.73
-143.54 56.98 84.63
-148.02 56.58 83.6
-143.3 54.28 84.95
-147.52 53.77 83.62
-142.71 51.53 84.98
-147.03 50.98 83.68
-142.34 49.05 85.71
-146.66 48.52 84.06
-142.24 46.57 86.6
-146.26 46.05 84.34
-145.97 43.63 84.94
-141.82 44.09 87.11
-141.56 41.44 87.04
-145.67 41.21 85.5
-140.98 38.76 87.5
-145.29 38.66 85.7
-140.75 36.16 87.85
-144.89 36.1 85.85
-144.62 33.53 86.3
-140.46 33.57 88.45
-140.13 30.94 88.56
-144.22 30.94 86.41
-143.81 28.2 86.49
-139.84 28.2 88.9
-143.44 25.45 86.68
-139.6 25.51 89.44
-143.18 22.67 87.12
-139.22 22.78 89.44
-142.9 19.88 87.51
-138.79 20.04 89.71
-142.6 17.15 87.83
-138.39 17.32 89.75
-137.91 14.61 89.73
-142.25 14.42 88.03
-141.99 11.68 88.46
-137.6 11.89 89.94
-141.61 8.95 88.57
-137.22 9.16 90.05
-141.13 6.27 88.48
-136.86 6.45 90.3
-140.68 3.58 88.47
-136.37 3.76 90.16
-140.25 0.89 88.51
-135.88 1.07 90.03
-139.71 -1.79 88.26
-135.64 -1.76 90.02
-135.64 -4.55 89.75
-140 -4.44 88.09
-135.69 -7.09 89
-140.34 -7.12 88.03
-135.79 -9.62 88.23
-140.37 -9.69 87.25
-135.84 -12.19 87.54
-140.43 -12.27 86.54
-135.99 -14.75 87
-140.5 -14.79 85.8
-136.21 -17.35 86.64
-140.62 -17.33 85.19
-136.42 -19.93 86.21
-140.85 -19.94 84.82
-136.49 -22.42 85.34
-140.79 -22.34 83.7
-136.45 -24.91 84.43
-140.78 -24.79 82.73
-136.55 -27.44 83.74
-140.84 -27.3 81.99
-136.57 -29.97 82.98
-140.97 -29.86 81.42
-136.73 -32.54 82.43
-141.02 -32.36 80.63
-136.76 -35.12 81.64
-141.09 -34.97 79.94
-141.32 -37.69 79.69
-136.83 -37.72 80.96
-141.45 -40.33 79.13
-136.9 -40.34 80.32
-137.11 -43 79.41
-141.48 -42.91 78.35
-141.57 -45.38 77.61
-137.04 -45.54 78.64
-141.59 -47.8 76.7
-137.03 -47.91 77.56
-141.86 -50.43 76.49
-137.15 -50.39 76.9
-141.9 -52.84 75.63
-137.27 -52.84 76.11
-141.91 -55.11 74.4
-137.53 -55.19 75.26
-137.48 -57.49 74.21
-141.9 -57.35 73.07
-142.03 -59.74 72.14
-137.7 -59.92 73.43
-142.25 -62.22 71.44
-137.97 -62.48 72.92
-142.57 -64.67 70.67
-138.15 -65.14 72.4
-142.87 -67.1 69.86
-138.34 -67.41 71.12
-143.16 -69.56 69.09
-138.58 -69.8 70.17
-143.42 -71.97 68.22
-138.72 -72 68.84
-143.42 -74.03 66.78
-138.71 -74.17 67.59
-143.52 -76.26 65.69
-138.9 -76.5 66.65
-143.64 -78.59 64.8
-139.03 -78.91 65.88
-143.64 -80.66 63.43
-139.36 -81.09 64.3
-142.41 80.53 78.87
-142.88 83.09 77.59
-141.83 77.87 79.86
-141.49 75.33 80.8
-140.97 72.61 81.19
-140.47 70.13 81.77
-140.01 67.69 82.47
-139.94 65.21 83.59
-139.84 62.72 84.64
-139.44 60.04 85.13
-139.12 57.42 85.86
-138.88 54.8 86.42
-138.56 52.14 86.78
-138.19 49.56 87.25
-137.83 46.99 87.76
-137.58 44.31 88.01
-137.31 41.63 88.23
-137.03 38.95 89.21
-136.57 36.22 89.77
-136.22 33.57 90.06
-135.88 30.91 90.36
-135.74 28.24 91.1
-135.47 25.56 91.56
-134.94 22.88 91.41
-134.47 20.19 91.43
-134.08 17.49 91.57
-133.61 14.8 91.52
-133.09 12.1 91.2
-132.71 9.37 91.23
-132.3 6.67 91.32
-131.94 3.96 91.53
-131.76 1.11 91.67
-131.5 -1.71 91.62
-131.31 -4.41 90.89
-131.1 -7.09 90.13
-131.35 -9.7 89.79
-131.55 -12.29 89.33
-131.63 -14.81 88.62
-131.74 -17.34 87.96
-131.85 -19.85 87.19
-132.06 -22.42 86.66
-132.19 -25.02 86.17
-132.25 -27.57 85.48
-132.26 -30.09 84.65
-132.44 -32.72 84.26
-132.56 -35.36 83.72
-132.63 -37.97 83.04
-132.75 -40.58 81.94
-132.83 -43.16 80.72
-132.77 -45.71 79.94
-132.75 -48.3 79.25
-132.77 -50.64 78.12
-132.8 -52.99 77
-132.95 -55.32 76.2
-133.13 -57.69 75.53
-133.33 -60.11 74.69
-133.5 -62.48 73.72
-133.64 -65.09 73
-133.72 -67.59 72.04
-133.86 -69.81 70.74
-134.01 -72.03 69.43
-134.18 -74.44 68.63
-134.35 -76.86 67.84
-134.77 -79.33 66.76
-135.07 -81.54 65.2
-138.04 81.11 79.93
-138.51 83.66 78.64
-137.48 78.45 80.95
-136.81 75.7 81.58
-136.53 73.2 82.68
-136.2 70.85 83.66
-136.01 68.35 84.53
-135.78 65.76 85.17
-135.49 63.19 85.82
-135.19 60.56 86.38
-134.98 57.99 87.45
-134.76 55.37 88.25
-134.53 52.77 88.88
-134 50.11 89.1
-133.65 47.3 89.03
-133.3 44.56 89.42
-133.29 41.92 90.17
-132.89 39.2 91
-132.5 36.43 91.58
-132.05 33.68 92.21
-131.7 30.98 92.36
-131.44 28.31 92.66
-131.04 25.67 93.02
-130.62 23.02 93.01
-130.15 20.36 93.11
-129.82 17.66 93.35
-129.27 14.97 93.05
-128.74 12.27 92.73
-128.4 9.55 92.87
-127.96 6.85 92.86
-127.84 4 93.22
-127.59 1.17 93.17
-127.27 -1.64 92.97
-127.25 -4.36 92.57
-127.15 -7.08 92.07
-127.17 -9.83 91.83
-127.29 -12.38 91.16
-127.29 -14.86 90.23
-127.44 -17.42 89.6
-127.57 -19.97 88.96
-127.76 -22.53 88.35
-127.82 -25.1 87.72
-127.85 -27.64 86.95
-127.95 -30.27 86.46
-128.2 -32.95 86.24
-128.25 -35.54 85.49
-128.5 -38.26 84.8
-128.59 -40.83 83.55
-128.62 -43.36 82.3
-128.5 -45.86 81.36
-128.57 -48.51 80.64
-128.51 -50.96 79.6
-128.63 -53.39 78.68
-128.82 -55.89 78.24
-129.15 -58.39 77.85
-129.06 -60.46 76.29
-128.99 -62.4 74.44
-128.98 -64.79 73.19
-129.01 -67.15 71.96
-128.97 -69.58 70.84
-129.28 -72.05 69.98
-129.48 -74.55 69.36
-130.01 -77.21 68.65
-130.42 -79.71 67.63
-130.79 -82.03 66.21
-133.82 81.84 81.46
-134.36 84.47 80.38
-133.19 79.09 82.22
-132.49 76.28 82.7
-131.95 73.65 83.71
-131.93 71.29 85
-131.87 68.9 86.17
-131.5 66.27 86.57
-131.13 63.64 86.94
-130.87 61.02 87.58
-130.68 58.45 88.47
-130.46 55.86 89.34
-130.18 53.24 90.02
-129.88 50.44 90.31
-129.64 47.69 90.79
-129.42 44.94 91.36
-129.23 42.2 92.03
-128.71 39.37 92.41
-128.45 36.65 93.48
-128.03 33.86 94.03
-127.47 31.03 94.24
-127.19 28.41 94.71
-126.88 25.78 95.12
-126.32 23.16 94.88
-125.8 20.53 94.74
-125.36 17.84 94.64
-124.86 15.16 94.43
-124.49 12.44 94.52
-124.2 9.71 94.8
-123.95 6.88 94.78
-123.68 4.05 94.73
-123.4 1.23 94.62
-123.18 -1.6 94.69
-123.37 -4.41 94.84
-123.31 -7.12 94.32
-123.16 -9.79 93.63
-122.95 -12.42 92.76
-123.09 -14.99 92.12
-123.27 -17.57 91.56
-123.4 -20.13 90.9
-123.5 -22.66 90.14
-123.53 -25.22 89.42
-123.57 -27.78 88.7
-123.68 -30.42 88.22
-123.74 -33.02 87.62
-123.94 -35.69 86.77
-124.14 -38.36 85.91
-124.27 -40.96 84.88
-124.51 -43.67 84.17
-124.44 -46.18 83.04
-124.36 -48.68 81.9
-124.32 -51.14 80.87
-124.34 -53.66 80.01
-124.65 -56.22 79.72
-124.85 -58.64 79.12
-124.76 -60.62 77.46
-124.57 -62.46 75.52
-124.49 -64.69 73.94
-124.51 -67.1 72.74
-124.57 -69.65 71.8
-124.65 -72.26 70.99
-125.14 -74.86 70.13
-125.57 -77.36 69.04
-126.01 -79.84 67.96
-126.39 -82.16 66.58
-129.58 82.52 82.46
-130.23 85.32 82
-128.9 79.77 83.09
-128.4 77.11 83.84
-127.98 74.41 84.96
-127.56 71.77 85.9
-127.33 69.24 86.57
-127.15 66.76 87.43
-126.86 64.14 88.01
-126.52 61.49 88.81
-126.36 58.96 89.84
-126.14 56.38 90.8
-125.97 53.53 91.15
-125.51 50.64 91.5
-125.42 47.93 92.31
-125.22 45.19 93.14
-125.05 42.45 93.81
-124.64 39.66 94.38
-124.31 36.88 95.2
-123.77 34.05 95.42
-123.26 31.23 95.69
-122.78 28.52 96.11
-122.44 25.87 96.38
-121.98 23.27 96.26
-121.42 20.65 96.06
-121.04 17.96 96.08
-120.68 15.29 96.36
-120.38 12.57 96.56
-120.17 9.75 96.72
-119.91 6.93 96.66
-119.55 4.12 96.37
-119.27 1.3 96.28
-119.07 -1.54 96.32
-119.25 -4.36 96.51
-119.22 -7.1 96.08
-119.04 -9.77 95.31
-119 -12.5 94.8
-118.91 -15.21 94.19
-119.08 -17.79 93.59
-119.2 -20.38 92.98
-119.3 -22.91 92.18
-119.31 -25.47 91.43
-119.31 -28 90.63
-119.33 -30.55 89.87
-119.45 -33.15 88.84
-119.6 -35.8 87.91
-119.83 -38.5 87.17
-120.05 -41.2 86.43
-120.26 -43.87 85.57
-120.32 -46.42 84.63
-120.24 -48.94 83.59
-120.24 -51.46 82.7
-120.29 -53.99 81.83
-120.1 -56.26 80.6
-120.22 -58.48 79.45
-120.33 -60.66 78.2
-120.24 -62.81 76.84
-120.26 -65.2 75.6
-120.18 -67.48 74.2
-120.23 -70.02 73.25
-120.52 -72.67 72.16
-120.81 -75.19 70.96
-121.18 -77.58 69.65
-121.52 -79.9 68.24
-121.92 -82.27 66.97
-125.25 83.17 83.41
-125.88 85.88 82.84
-124.6 80.45 83.94
-124.22 77.72 84.75
-123.94 75.09 85.93
-123.46 72.43 86.81
-122.93 69.71 87.46
-122.73 67.14 88.15
-122.59 64.64 89.06
-122.25 62 89.9
-121.95 59.4 90.9
-121.96 56.7 91.92
-121.73 53.8 92.2
-121.47 50.99 93.04
-121.27 48.22 94.07
-121.07 45.45 94.8
-120.88 42.69 95.58
-120.53 39.9 96.26
-120.06 37.06 96.59
-119.52 34.23 96.77
-119.19 31.45 97.53
-118.64 28.71 97.7
-118.07 25.97 97.81
-117.65 23.36 97.86
-117.2 20.75 97.82
-116.76 18.09 97.81
-116.45 15.42 98.16
-116.25 12.62 98.27
-115.94 9.82 98.09
-115.72 7.01 98.16
-115.43 4.19 98.08
-115.24 1.34 98.13
-115.02 -1.5 98.11
-115.03 -4.27 97.86
-115.05 -7.04 97.62
-115.01 -9.78 97.12
-114.91 -12.5 96.46
-114.83 -15.21 95.87
-114.79 -17.94 95.36
-114.95 -20.55 94.79
-115.09 -23.14 94.17
-115.09 -25.69 93.41
-115.09 -28.25 92.66
-115.19 -30.82 91.55
-115.34 -33.43 90.58
-115.56 -36.16 89.86
-115.65 -38.76 88.81
-115.73 -41.32 87.6
-115.89 -43.96 86.62
-115.94 -46.5 85.75
-115.97 -49.02 84.82
-116.06 -51.62 84.1
-116.16 -54.22 83.41
-116 -56.46 81.98
-115.78 -58.59 80.34
-115.73 -60.7 78.9
-115.82 -63.01 77.89
-115.91 -65.56 77.02
-115.85 -67.86 75.66
-116.07 -70.39 74.35
-116.45 -73.24 73.66
-116.73 -75.78 72.45
-116.87 -78.01 70.66
-117.13 -80.1 68.85
-117.46 -82.37 67.36
-120.93 83.58 83.84
-121.35 86.18 83.25
-120.43 80.92 84.76
-120.24 78.29 85.68
-119.85 75.73 86.84
-119.39 73.08 87.68
-118.97 70.39 88.56
-118.52 67.71 89.38
-118.27 65.1 89.93
-117.89 62.43 90.71
-117.77 59.68 91.68
-117.62 56.89 92.64
-117.53 54.11 93.38
-117.25 51.28 94.27
-116.99 48.44 95.07
-116.61 45.56 95.63
-116.37 42.76 96.18
-116.01 39.98 96.85
-115.62 37.17 97.41
-115.23 34.39 98.02
-114.97 31.62 98.96
-114.53 28.91 99.33
-113.9 26.15 99.26
-113.4 23.47 99.53
-113.04 20.85 99.72
-112.61 18.2 99.71
-112.34 15.45 99.77
-112.11 12.66 99.75
-111.7 9.9 99.43
-111.54 7.08 99.65
-111.31 4.26 99.65
-111.1 1.42 99.6
-110.91 -1.42 99.76
-110.84 -4.17 99.3
-110.76 -6.92 98.71
-110.8 -9.71 98.47
-110.76 -12.46 97.96
-110.67 -15.19 97.39
-110.65 -17.93 96.92
-110.56 -20.62 96.27
-110.66 -23.19 95.59
[...]
CELL_DATA 49152
SCALARS Temperature float 1
LOOKUP_TABLE default
325.03
325.353
307.54
307.538
321.964
322.249
298.741
299.007
301.953
301.874
307.457
307.242
310.129
309.856
317.012
317.328
322.51
319.969
302.27
301.144
279.02
279.844
279.438
279.205
308.75
307.608
325.799
324.874
335.073
326.667
312.162
312.728
304.858
305.132
311.34
312.191
321.624
328.016
315.876
315.988
315.424
330.972
327.064
344.266
342.199
319.857
330.289
320.624
323.587
305.035
302.056
301.853
309.832
293.824
289.128
289.133
279.425
308.104
298.223
287.208
295.085
279.564
273.384
302.783
297.712
295.918
268.734
260.687
200.442
200.418
211.088
211.105
228.388
230.656
259.896
262.17
273.182
272.604
238.802
241.538
256.986
257.428
274.832
275.264
273.867
272.331
273.799
275.885
276.59
276.02
295.562
244.382
253.169
239.313
222.357
221.057
222.94
213.614
197.879
89.2305
244.557
96.2206
89.7228
90.2632
92.5134
73.2994
81.8861
130.751
213.948
246.034
251.697
276.619
264.687
286.859
276.411
194.303
244.063
206.18
214.92
51.579
61.648
55.1803
51.3472
40.7993
188.443
222.484
15.2618
15.193
313.002
312.674
301.29
302.202
315.179
314.661
288.499
288.591
301.404
301.679
301.095
301.101
307.691
308.272
316.737
318.289
308.023
306.75
301.653
301.754
298.425
298.772
299.447
298.955
317.29
317.714
310.533
309.664
283.324
282.511
270.357
272.678
290.851
327.627
313.688
318.743
321.915
302.602
297.459
309.335
310.843
333.807
328.895
324.576
304.859
304.896
312.144
294.82
300.151
300.208
295.969
295.989
284.052
283.543
274.594
274.36
280.804
264.176
249.707
288.43
271.766
302.784
297.316
293.77
266.148
261.283
223.882
222.926
256.327
260.147
277.57
279.407
278.53
277.399
270.796
268.371
241.02
237.016
229.121
233.402
260.867
264.481
277.586
277.545
269.538
268.961
288.357
289.509
289.668
291.46
296.177
296.224
282.295
278.605
251.573
244.524
245.254
244.76
219.954
277.512
279.747
206.417
238.573
116.359
86.3506
96.7734
92.8668
253.39
248.337
238.388
261.013
91.2609
214.234
124.243
49.4997
41.949
175.177
49.8256
50.0467
47.5164
49.3072
35.4373
36.9245
37.1539
235.22
193.131
12.1843
11.318
314.397
314.294
305.548
305.62
292.623
291.172
297.142
299.146
321.411
320.75
331.812
331.894
332.764
331.313
316.836
314.862
296.917
297.175
317.262
318.736
321.597
322.081
324.105
323.987
316.643
317.818
300.577
299.808
294.952
295.207
313.113
316.787
333.427
323.315
316.262
318.69
311.964
326.457
320.628
312.309
328.176
301.421
305.885
296.669
282.432
282.571
293.313
293.336
298.765
307.02
284.357
284.409
271.73
271.872
289.05
298.318
295.552
287.152
296.386
311.622
304.839
289.218
289.06
274.275
269.088
272.188
284.004
285.842
308.086
308.124
294.67
293.468
268.703
267.338
273.051
273.312
274.824
275.784
284.531
283.959
277.132
275.987
259.952
259.188
270.889
274.306
294.891
308.804
288.263
286.656
283.614
284.537
260.831
258.254
246.9
245.86
265.254
240.947
259.189
261.134
236.681
238.618
254.906
259.078
275.546
306.875
299.562
321.681
274.871
268.636
137.063
61.2258
167.246
61.6176
66.7652
67.1521
65.5854
62.4216
59.6629
57.426
56.0661
57.285
51.8127
53.3523
169.272
192.379
8.06909
8.30799
330.373
329.908
313.887
313.52
294.35
294.168
308.596
307.629
315.618
317.457
323.525
325.614
309.905
309.496
298.772
298.086
297.642
298.066
309.828
308.779
302.555
302.962
298.462
298.573
283.831
284.285
297.042
300.441
320.748
322.025
334.337
324.88
326.241
297.606
304.905
332.742
322.036
318.391
308.761
306.806
312.959
321.756
317.54
322.384
299.525
300.129
293.737
294.102
286.876
286.274
263.244
263.247
284.294
285.11
304.571
314.301
303.533
308.956
320.144
289.619
289.86
284.164
280.218
303.697
310.724
314.954
310.784
310.874
303.891
301.866
271.428
269.758
271.884
273.943
293.422
293.897
292.384
292.319
287.049
285.924
278.578
277.94
273.572
274.073
288.188
288.425
300.006
257.652
246.798
246.327
243.931
239.679
207.991
215.007
256.663
266.047
268.74
267.275
259.106
251.075
224.391
224.932
237.388
246.115
269.751
288.241
284.46
256.482
58.4737
54.273
66.8858
61.578
55.0378
53.1459
55.4099
56.5252
53.6851
51.7886
51.1328
53.2311
53.3515
55.8267
57.5463
56.1368
55.0111
54.3926
40.8389
40.6038
308.59
308.931
290.455
290.263
291.909
292.491
317.287
317.836
317.235
314.147
291.318
287.606
273.137
275.582
284.551
285.413
301.463
302.055
314.804
315.641
316.986
317.396
301.251
299.419
285.168
285.115
303.956
306.978
309.655
324.054
320.659
321.075
310.321
323.133
334.684
321.28
314.088
289.369
291.535
292.011
304.313
295.485
297.174
285.73
266.929
267.196
269.339
269.222
278.874
279.269
273.893
313.754
307.994
316.374
318.595
313.839
308.464
305.597
297.044
295.55
293.32
294.832
300.797
299.289
307.112
309.363
286.227
286.896
273.691
273.184
283.602
286.016
298.419
298.216
300.018
299.801
297.19
297.471
291.841
291.682
290.715
290.561
286.749
286.274
284.262
282.272
256.488
251.33
233.306
230.759
239.423
242.1
249.982
256.078
266.629
263.884
246.133
249.99
254.784
256.229
270.045
271.938
281.176
281.613
305.308
58.9301
210.278
64.2462
65.1509
68.5518
58.5206
69.7133
38.3691
50.953
239.025
50.9806
51.7107
50.5049
48.4144
46.0458
49.5765
56.0521
49.5173
49.5053
50.7548
45.8131
44.0273
42.5252
279.828
280.07
283.708
283.683
293.816
294.053
309.861
310.604
303.099
302.777
290.693
290.216
290.934
289.782
291.64
293.829
302.041
302.292
308.945
308.388
307.582
308.286
284.817
283.779
299.381
304.517
320.945
328.032
324.303
318.906
317.989
322.875
315.924
322.861
325.99
294.035
288.186
287.982
290.476
324.443
314.764
296.882
303.024
284.963
284.369
284.625
288.073
288.302
299.352
295.326
306.087
311.642
307.192
303.979
293.386
290.668
281.789
293.448
287.2
288.816
296.977
308.907
308.498
304.076
300.2
295.355
276.951
278.901
275.669
277.925
284.567
283.423
279.172
279.346
284.492
284.719
285.951
286.378
286.326
287.618
287.498
287.434
287.239
287.506
278.029
275.618
269.859
270.875
285.969
288.947
283.155
278.594
252.629
242.37
223.146
219.193
210.995
212.516
211.719
214.844
229.348
260.497
250.479
274.879
214.664
211.669
128.157
48.797
51.7518
52.986
52.9074
42.4532
36.8466
41.7294
210.654
212.527
252.28
204.072
226.191
281.917
23.6587
258.402
215.871
59.4438
12.9194
30.375
41.5881
36.9369
256.6
257.068
275.439
278.381
297.591
299.198
311.224
311.07
298.812
298.677
298.936
300.132
306.934
307.075
301.803
299.845
291.691
291.183
295.982
295.46
293.301
291.504
281.185
287.517
306.039
306.458
311.719
294.944
286.233
283.462
276.691
273.285
268.096
267.44
262.175
264.885
257.692
298.201
302.843
314.669
289.58
306.621
296.367
280.459
288.037
302.234
292.044
310.333
303.07
303.273
315.687
298.097
300.534
290.084
276.025
274.648
285.862
298.876
286.97
294.906
297.062
288.855
289.832
303.714
283.535
281.632
264.517
260.168
260.473
263.933
263.531
265.298
269.997
270.167
276.897
277.298
269.71
268.399
261.35
260.627
248.769
248.66
255.636
256.983
253.627
258.008
266.82
267.052
280.562
280.845
252.671
249.321
220.695
213.971
232.651
231.628
233.907
233.702
223.878
222.743
241.084
227.825
236.301
209.569
121.956
151.118
103.223
125.511
212.791
27.5608
37.8473
41.2455
48.1104
45.1636
124.324
124.806
135.503
70.4296
219.212
187.462
63.0904
229.447
11.7153
12.3104
11.2905
23.5609
29.0932
32.372
274.896
276.709
287.551
287.279
289.64
289.505
294.342
293.646
284.728
285.538
296.796
298.818
302.138
303.003
291.333
290.748
302.977
304.408
305.048
302.459
298.02
296.391
291.621
291.985
295.544
295.653
286.895
284.457
269.945
268.085
273.219
274.044
277.946
298.499
285.953
296.002
293.528
315.169
315.488
283.881
278.616
280.527
264.089
264.765
281.874
284.097
281.286
299.022
282.468
305.851
300.171
298.062
292.059
291.055
285.875
287.617
308.531
300.18
296.141
286.453
289.474
283.82
294.046
252.528
253.268
255.662
259.401
261.856
275.529
274.322
264.768
265.923
275.281
278.032
294.324
296.691
290.171
290.39
269.038
266.335
255.093
254.101
252.952
250.035
241.489
242.103
235.525
234.98
243.653
239.884
192.634
195.583
201.905
210.606
248.795
249.508
250.707
250.039
239.675
238.831
243.5
240.826
239.022
196.074
197.025
203.819
197.563
207.233
247.941
250.332
239.002
234.007
213.771
49.3762
187.527
190.332
114.416
74.8221
215.008
72.7268
71.8875
82.4347
72.4645
67.2359
52.5283
48.2877
27.1685
30.3174
310.756
314.773
315.867
316.038
310.252
309.109
313.148
313.181
299.525
297.897
283.79
279.58
267.514
266.354
282.96
291.682
311.868
313.979
304.895
303.057
299.849
297.772
295.999
295.136
298.585
298.523
294.948
295.965
303.953
306.821
316.579
317.508
323.973
319.113
314.83
316.306
321.989
318.275
307.843
298.791
299.356
317.607
296.794
319.754
317.089
281.1
306.201
278.969
286.551
290.989
281.392
298.767
285.241
288.543
287.245
293.23
299.791
294.715
289.044
314.52
304.492
291.453
292.436
274.242
282.641
281.891
275.466
275.235
277.313
276.951
272.951
272.969
279.19
279.603
281.393
280.446
274.441
277.229
271.332
274.749
282.569
281.145
261.484
254.339
251.47
250.344
246.868
248.194
250.851
248.867
225.306
225.806
240
244.093
244.274
239.538
239.04
239.084
236.233
237.494
252.403
254.065
242.642
240.974
201.621
190.507
117.349
234.465
216.59
206.02
55.2233
48.8292
101.551
131.51
143.237
131.713
67.886
66.3432
54.159
58.0389
57.1349
70.334
58.9733
63.9989
52.5579
48.2104
41.3248
31.3353
295.643
292.412
277.472
277.933
277.719
279.473
287.611
286.061
287.497
290.928
298.713
300.328
312.517
313.55
322.42
319.537
312.959
305.758
293.309
335.331
322.568
347.838
339.677
328.372
336.79
301.522
314.92
318.061
318.987
317.768
313.525
312.712
314.887
314.997
311.03
315.532
317.739
295.594
289.885
308.323
309.782
328.289
311.672
303.023
281.696
281.431
294.193
294.761
302.572
309.922
305.807
288.572
283.82
279.684
282.962
291.34
292.483
294.722
299.909
307.533
286.783
279.298
275.201
275.384
283.522
283.466
276.622
275.887
273.71
272.475
277.199
278.729
284.773
284.834
271.901
268.871
232.289
220.016
211.7
223.402
245.043
255.66
247.975
250.962
266.561
264.615
265.021
265.093
259.28
258.024
257.115
260.201
266.713
266.079
261.952
264.002
273.795
273.8
271.474
271.289
263.984
260.108
243.812
244.233
229.305
232.105
262.791
221.942
208.197
202.014
186.626
209.295
225.219
220.334
205.764
199.13
190.154
69.2972
217.656
205.372
189.559
280.663
77.1224
48.0483
20.9277
20.5353
12.8584
9.716
267.338
265.263
268.56
270.963
274.912
276.55
294.669
298.392
310.059
311.084
310.458
312.512
314.089
339.089
334.939
329.389
328.879
335.495
338.44
345.836
341.826
335.398
323.331
329.373
321.029
321.152
323.331
321.16
316.668
314.603
313.968
314.744
318.66
296.89
305.21
303.212
295.776
297.977
299.848
297.356
309.582
278.575
262.048
264.758
261.987
269.874
288.4
318.38
316.24
302.112
296.784
276.925
279.208
274.879
284.039
276.763
282.315
279.572
290.565
274.713
248.141
259.99
249.654
266.244
273.342
274.78
277.324
279.429
283.808
284.523
287.755
286.538
278.555
276.772
271.643
274.228
267.639
270.057
264.549
254.138
247.643
247.257
243.986
255.612
265.25
266.012
271.227
270.699
264.534
264.411
267.386
267.301
265.042
265.674
267.424
268.503
261.644
258.983
252.63
251.652
239.802
239.164
231.309
228.637
219.382
221.929
230.735
231.606
220.233
219.885
223.236
223.805
211.388
212.581
211.167
213.038
216.042
216.04
220.122
223.526
261.235
138.547
201.551
225.987
106.601
13.1135
11.226
7.90753
286.542
327.28
315.452
315.163
310.671
310.274
320.683
323.765
309.395
305.667
302.982
303.862
311.987
335.731
319.602
329.409
328.362
343.932
344.002
336.273
332.202
301.389
304.188
311.449
300.679
345.703
329.429
361.97
353.836
339.712
333.263
330.493
320.671
309.536
321.517
295.544
302.348
300.602
302.034
295.336
298.295
270.426
270.179
275.952
271.079
292.762
295.193
288.149
280.521
241.093
248.02
251.282
252.088
268.503
268.497
268.469
273.167
270.653
277.011
260.186
244.911
275.817
260.998
283.242
285.658
287.005
279.811
278.741
278.87
279.983
271.677
269.993
256.765
253.437
261.581
263.417
247.74
248.811
237.248
239.403
261.019
258.352
254.117
253.306
242.266
247.526
259.635
262.255
260.703
261.604
259.594
257.748
250.388
248.686
241.778
239.539
226.463
226.608
229.986
228.993
226.817
228.692
217.397
216.159
216.804
216.052
213.22
212.729
196.94
198.488
206.076
207.454
196.069
199.137
198.266
200.191
190.859
185.31
169.502
153.421
110.741
52.5998
189.71
39.6143
31.0265
12.2655
5.37832
8.84459
312.259
308.952
298.079
322.119
308.92
336.227
336.224
323.358
318.606
319.742
324.6
324.42
334.663
315.342
310.704
310.991
316.434
327.644
320.148
288.01
278.31
302.337
301.504
344.232
339.27
366.16
358.258
369.587
343.84
345.195
309.598
308.357
316.757
291.137
304.766
310.414
313.024
296.956
303.207
294.207
290.752
283.959
288.853
267.182
281.779
249.578
263.958
217.048
195.799
263.101
247.526
279.148
265.843
285.133
277.008
288.234
286.995
288.435
287.31
279.027
282.674
285.811
280.708
291.561
285.912
284.721
268.877
267.98
268.833
267.602
257.779
259.445
250.894
248.686
261.27
258.463
221.074
215.799
222.868
231.178
256.668
259.233
262.728
262.722
255.764
255.94
256.028
257.004
246.144
246.361
237.077
235.956
230.837
229.602
220.175
217.42
225.571
229.006
236.664
237.933
223.263
218.555
201.276
203.748
205.083
202.738
202.101
202.342
200.503
207.771
204.095
199.354
186.122
187.932
176.601
175.032
159.474
162.921
146.426
138.588
79.5425
30.1697
26.8376
38.4466
21.5755
30.5287
19.7132
6.38462
293.282
314.445
306.915
328.98
321.363
323.162
316.103
321.681
315.545
334.871
332.791
341.71
343.21
333.911
333.305
330.007
339.675
255.471
272.529
290.293
283.932
324.242
326.161
324.51
331.812
341.614
332.226
326.758
281.32
279.745
220.188
220.652
260.44
256.85
278.536
268.425
266.805
262.239
266.757
251.883
250.867
251.658
248.858
249.723
252.674
265.837
258.613
288.043
284.587
317.469
304.9
325.541
314.026
308.585
309.048
281.541
294.371
298.699
292.595
287.795
294.312
282.867
287.961
280.931
269.411
266.848
259.872
261.678
272.04
273.878
271.719
272.445
280.093
286.439
293.26
291.686
264.402
261.309
270.267
268.895
264.603
261.453
255.557
254.644
240.039
237.306
239.632
240.746
207.893
201.505
180.309
180.83
198.23
204.085
221.274
227.92
234.399
232.509
218.759
215.974
202.674
208.107
218.783
221.827
196.375
181.594
187.965
188.747
202.379
209.845
176.467
166.995
152.418
146.08
14.8548
9.98625
12.4295
17.6605
14.5581
122.799
138.396
154.232
177.833
159.457
6.88129
8.49515
9.94129
6.25264
299.396
317.991
313.049
296.237
292.84
284.931
280.392
299.812
295.267
335.273
325.307
341.556
333.412
333.787
331.342
306.125
304.522
307.15
323.774
327.482
333.09
277.35
303.519
250.73
293.052
254.045
232.445
256.264
75.9543
106.682
114.17
121.535
224.405
239.793
277.367
281.198
257.983
249.451
247.497
235.619
239.557
262.07
248.768
281.483
274.584
295.614
292.337
299.312
306.992
308.545
304.31
305.444
287.432
279.447
268.306
279.831
290.736
280.353
275.39
272.944
275.725
275.829
278.065
271.494
267.413
269.048
280.213
283.189
282.549
280.947
276.559
277.638
286.585
288.076
268.109
264.546
241.914
244.051
267.271
267.749
265.361
264.592
260.285
257.314
245.862
245.731
248.583
246.314
221.679
224.57
220.27
218.561
219.509
215.907
230.773
234.424
221.279
220.953
208.877
206.714
228.973
239.402
217.947
204.622
120.062
62.4296
177.223
178.308
168.198
149.683
22.7125
117.624
100.232
13.0771
10.1629
12.9067
11.8425
12.9625
8.80158
16.8042
144.269
170.33
133.455
25.1417
17.8152
5.79505
9.7587
8.81766
295.344
261.911
255.091
276.256
263.036
279.974
277.329
292.258
298.768
292.036
287.901
297.486
281.645
278.368
251.02
246.452
257.117
265.661
283.827
246.65
238.187
238.976
257.549
238.91
237.571
191.886
104.413
119.107
117.46
111.653
110.041
115.042
90.3138
56.1091
231.176
249.4
213.878
218.631
240.179
273.125
271.565
293.215
286.103
292.976
292.435
289.774
290.586
285.157
296.64
265.948
274.684
254.047
225.845
258.692
237.793
251.293
254.916
244.132
240.272
266.62
259.603
260.203
258.778
258.592
264.463
268.561
277.724
279.339
270.435
270.874
269.534
269.074
269.453
266.437
264.055
273.331
267.092
267.808
260.372
252.264
247.31
247.311
242.724
241.947
244.334
246.457
268.344
275.165
270.584
272.754
246.936
240.619
244.616
244.478
236.931
227.021
202.616
204.712
198.383
201.959
202.438
180.776
25.5207
22.2732
123.376
165.296
211.202
209.868
185.037
173.58
136.036
21.3111
14.426
91.7219
102.915
11.585
13.2407
6.60097
5.64678
1.31838
1.15073
1.25115
0.815116
5.20327
3.69423
0.876914
0.606361
2.23863
277.601
236.469
254.725
269.707
254.743
252.197
222.172
184.986
154.162
101.92
104.316
103.908
99.9232
79.8876
201.205
233.904
264.776
269.237
267.886
269.684
259.508
258.574
253.388
246.827
216.587
200.297
148.965
97.3826
97.2469
91.3161
87.8104
81.8857
73.2605
77.1236
191.671
193.454
219.969
236.41
262.684
291.383
287.674
291.07
284.969
279.339
279.901
279.217
277.776
282.532
280.756
283.345
283.087
276.097
269.665
244.195
240.723
241.901
240.417
261.634
260.606
269.587
258.681
274.09
265.969
267.415
265.321
262.561
248.388
242.866
233.878
237.529
237.53
238.706
241.354
241.565
248.675
249.108
219.137
224.827
198.958
195.477
229.657
229.421
232.848
236.266
241.282
241.623
260.93
261.781
218.335
210.529
54.2746
52.3495
208.171
215.535
208.729
209.949
210.895
204.768
195.476
196.667
182.719
178.759
153.577
19.464
170.867
181.59
168.666
152.358
22.4099
22.0238
22.6965
19.311
21.552
10.3552
6.82901
6.45339
7.2717
9.90368
6.7664
2.36131
0.657719
0.980795
0.852704
4.0025
3.71819
3.54217
0.932837
0.244128
264.472
259.384
277.103
209.247
217.206
251.758
209.414
212.188
240.896
239.156
262.973
261.575
254.32
268.462
245.969
274.003
253.934
318.402
292.437
326.909
282.194
276.823
246.042
233.43
222.491
221.573
241.958
246.271
266.804
54.7407
52.014
52.141
51.9876
48.6902
276.199
289.468
291.475
298.301
294.036
285.666
287.223
282.595
275.555
295.062
287.124
291.725
290.477
276.165
281.952
256.379
264.344
259.108
241.023
263.991
251.868
273.985
271.485
278.296
278.005
271.847
271.289
271.067
263.615
264.692
260.575
260.132
249.713
248.088
241.09
235.975
224.297
224.274
230.135
232.551
212.469
200.592
164.125
177.958
177.637
204.54
241.032
241.146
235.311
231.242
219.285
215.359
240.203
239.94
169.263
170.885
130.627
154.805
224.66
222.38
185.161
180.496
195.93
203.089
198.686
193.957
179.372
180.956
170.186
171.117
184.646
181.443
181.112
194.949
165.001
24.1991
20.3161
21.9673
20.2241
136.2
4.82999
5.57995
6.04848
6.25085
5.79754
6.24083
0.662382
0.585887
0.558261
0.727645
3.33603
2.05246
1.78512
0.985956
244.047
246.207
245.5
237.642
252.951
252.827
213.154
275.328
271.998
282.118
293.43
270.252
278.272
270.343
263.015
223.601
252.272
227.273
165.06
127.344
112.713
110.921
99.4496
144.271
236.077
246.514
262.846
289.064
286.538
293.438
288.048
288.129
280.097
289.604
288.235
282.008
290.093
271.265
269.996
280.76
275.831
290.138
286.196
291.903
283.458
301.247
287.224
257.247
266.897
231.436
254.884
258.404
249.516
283.873
269.343
294.418
284.611
272.405
275.132
261.805
267.161
259.289
255.006
258.859
253.41
253.786
249.697
251.468
252.634
253.526
257.122
256.974
253.615
250.764
237.809
240.974
245.068
243.643
231.835
232.681
224.845
222.541
208.396
205.811
199.754
198.063
226.558
222.021
183.637
198.78
185.15
189.545
208.144
199.839
158.456
160.773
176.216
167.847
156.246
168.245
151.567
144.681
100.472
96.5781
161.251
170.361
157.44
141.411
12.903
13.3069
2.41074
10.455
1.87306
12.1769
0
0
0
0
1.97241
3.73549
2.62441
2.6128
2.54626
1.09444
2.82378
0.985648
1.62969
1.68427
240.956
246.519
243.238
286.435
289.644
249.839
257.183
279.623
272.126
271.848
276.045
261.576
272.737
240.096
228.543
217.971
191.833
129.235
119.842
114
124.123
104.229
97.9761
66.0976
258.424
296.112
289.282
305.159
299.644
318.591
307.015
301.339
300.3
280.533
285.768
273.358
279.301
255.762
270.394
276.161
275.427
287.027
280.685
286.779
283.578
254.036
233.494
235.465
230.796
263.188
271.082
295.193
291.504
305.245
297.488
269.308
265.346
255.528
256.458
272.199
267.789
259.955
260.927
253.339
249.992
249.648
250.902
253.124
251.953
252.93
251.204
250.37
241.273
238.721
236.016
236.981
233.065
233.065
225.602
226.441
215.176
215.002
203.422
202.026
205.106
205.961
214.157
204.279
148.155
130.234
35.8266
24.7947
155.931
166.131