# vtk DataFile Version 3.0
vtk output
ASCII
DATASET POLYDATA
POINTS 24578 float
-151.53 81.83 75.23
-146.76 79.98 77.9
-147.26 82.51 76.57
-151.22 79.35 76.36
-146.3 77.32 78.47
-150.76 76.75 77.01
-146.01 74.82 79.56
-150.4 74.19 77.98
-145.43 72.07 79.86
-149.95 71.56 78.66
-145.02 69.6 80.58
-149.55 69.11 79.46
-144.64 67.21 81.53
-149.14 66.64 80.2
-144.27 64.77 82.34
-148.68 64.12 80.8
-144.06 62.18 83.1
-148.26 61.63 81.51
-143.83 59.57 83.96
-148.2 59.14 82.73
-143.54 56.98 84.63
-148.02 56.58 83.6
-143.3 54.28 84.95
-147.52 53.77 83.62
-142.71 51.53 84.98
-147.03 50.98 83.68
-142.34 49.05 85.71
-146.66 48.52 84.06
-142.24 46.57 86.6
-146.26 46.05 84.34
-145.97 43.63 84.94
-141.82 44.09 87.11
-141.56 41.44 87.04
-145.67 41.21 85.5
-140.98 38.76 87.5
-145.29 38.66 85.7
-140.75 36.16 87.85
-144.89 36.1 85.85
-144.62 33.53 86.3
-140.46 33.57 88.45
-140.13 30.94 88.56
-144.22 30.94 86.41
-143.81 28.2 86.49
-139.84 28.2 88.9
-143.44 25.45 86.68
-139.6 25.51 89.44
-143.18 22.67 87.12
-139.22 22.78 89.44
-142.9 19.88 87.51
-138.79 20.04 89.71
-142.6 17.15 87.83
-138.39 17.32 89.75
-137.91 14.61 89.73
-142.25 14.42 88.03
-141.99 11.68 88.46
-137.6 11.89 89.94
-141.61 8.95 88.57
-137.22 9.16 90.05
-141.13 6.27 88.48
-136.86 6.45 90.3
-140.68 3.58 88.47
-136.37 3.76 90.16
-140.25 0.89 88.51
-135.88 1.07 90.03
-139.71 -1.79 88.26
-135.64 -1.76 90.02
-135.64 -4.55 89.75
-140 -4.44 88.09
-135.69 -7.09 89
-140.34 -7.12 88.03
-135.79 -9.62 88.23
-140.37 -9.69 87.25
-135.84 -12.19 87.54
-140.43 -12.27 86.54
-135.99 -14.75 87
-140.5 -14.79 85.8
-136.21 -17.35 86.64
-140.62 -17.33 85.19
-136.42 -19.93 86.21
-140.85 -19.94 84.82
-136.49 -22.42 85.34
-140.79 -22.34 83.7
-136.45 -24.91 84.43
-140.78 -24.79 82.73
-136.55 -27.44 83.74
-140.84 -27.3 81.99
-136.57 -29.97 82.98
-140.97 -29.86 81.42
-136.73 -32.54 82.43
-141.02 -32.36 80.63
-136.76 -35.12 81.64
-141.09 -34.97 79.94
-141.32 -37.69 79.69
-136.83 -37.72 80.96
-141.45 -40.33 79.13
-136.9 -40.34 80.32
-137.11 -43 79.41
-141.48 -42.91 78.35
-141.57 -45.38 77.61
-137.04 -45.54 78.64
-141.59 -47.8 76.7
-137.03 -47.91 77.56
-141.86 -50.43 76.49
-137.15 -50.39 76.9
-141.9 -52.84 75.63
-137.27 -52.84 76.11
-141.91 -55.11 74.4
-137.53 -55.19 75.26
-137.48 -57.49 74.21
-141.9 -57.35 73.07
-142.03 -59.74 72.14
-137.7 -59.92 73.43
-142.25 -62.22 71.44
-137.97 -62.48 72.92
-142.57 -64.67 70.67
-138.15 -65.14 72.4
-142.87 -67.1 69.86
-138.34 -67.41 71.12
-143.16 -69.56 69.09
-138.58 -69.8 70.17
-143.42 -71.97 68.22
-138.72 -72 68.84
-143.42 -74.03 66.78
-138.71 -74.17 67.59
-143.52 -76.26 65.69
-138.9 -76.5 66.65
-143.64 -78.59 64.8
-139.03 -78.91 65.88
-143.64 -80.66 63.43
-139.36 -81.09 64.3
-142.41 80.53 78.87
-142.88 83.09 77.59
-141.83 77.87 79.86
-141.49 75.33 80.8
-140.97 72.61 81.19
-140.47 70.13 81.77
-140.01 67.69 82.47
-139.94 65.21 83.59
-139.84 62.72 84.64
-139.44 60.04 85.13
-139.12 57.42 85.86
-138.88 54.8 86.42
-138.56 52.14 86.78
-138.19 49.56 87.25
-137.83 46.99 87.76
-137.58 44.31 88.01
-137.31 41.63 88.23
-137.03 38.95 89.21
-136.57 36.22 89.77
-136.22 33.57 90.06
-135.88 30.91 90.36
-135.74 28.24 91.1
-135.47 25.56 91.56
-134.94 22.88 91.41
-134.47 20.19 91.43
-134.08 17.49 91.57
-133.61 14.8 91.52
-133.09 12.1 91.2
-132.71 9.37 91.23
-132.3 6.67 91.32
-131.94 3.96 91.53
-131.76 1.11 91.67
-131.5 -1.71 91.62
-131.31 -4.41 90.89
-131.1 -7.09 90.13
-131.35 -9.7 89.79
-131.55 -12.29 89.33
-131.63 -14.81 88.62
-131.74 -17.34 87.96
-131.85 -19.85 87.19
-132.06 -22.42 86.66
-132.19 -25.02 86.17
-132.25 -27.57 85.48
-132.26 -30.09 84.65
-132.44 -32.72 84.26
-132.56 -35.36 83.72
-132.63 -37.97 83.04
-132.75 -40.58 81.94
-132.83 -43.16 80.72
-132.77 -45.71 79.94
-132.75 -48.3 79.25
-132.77 -50.64 78.12
-132.8 -52.99 77
-132.95 -55.32 76.2
-133.13 -57.69 75.53
-133.33 -60.11 74.69
-133.5 -62.48 73.72
-133.64 -65.09 73
-133.72 -67.59 72.04
-133.86 -69.81 70.74
-134.01 -72.03 69.43
-134.18 -74.44 68.63
-134.35 -76.86 67.84
-134.77 -79.33 66.76
-135.07 -81.54 65.2
-138.04 81.11 79.93
-138.51 83.66 78.64
-137.48 78.45 80.95
-136.81 75.7 81.58
-136.53 73.2 82.68
-136.2 70.85 83.66
-136.01 68.35 84.53
-135.78 65.76 85.17
-135.49 63.19 85.82
-135.19 60.56 86.38
-134.98 57.99 87.45
-134.76 55.37 88.25
-134.53 52.77 88.88
-134 50.11 89.1
-133.65 47.3 89.03
-133.3 44.56 89.42
-133.29 41.92 90.17
-132.89 39.2 91
-132.5 36.43 91.58
-132.05 33.68 92.21
-131.7 30.98 92.36
-131.44 28.31 92.66
-131.04 25.67 93.02
-130.62 23.02 93.01
-130.15 20.36 93.11
-129.82 17.66 93.35
-129.27 14.97 93.05
-128.74 12.27 92.73
-128.4 9.55 92.87
-127.96 6.85 92.86
-127.84 4 93.22
-127.59 1.17 93.17
-127.27 -1.64 92.97
-127.25 -4.36 92.57
-127.15 -7.08 92.07
-127.17 -9.83 91.83
-127.29 -12.38 91.16
-127.29 -14.86 90.23
-127.44 -17.42 89.6
-127.57 -19.97 88.96
-127.76 -22.53 88.35
-127.82 -25.1 87.72
-127.85 -27.64 86.95
-127.95 -30.27 86.46
-128.2 -32.95 86.24
-128.25 -35.54 85.49
-128.5 -38.26 84.8
-128.59 -40.83 83.55
-128.62 -43.36 82.3
-128.5 -45.86 81.36
-128.57 -48.51 80.64
-128.51 -50.96 79.6
-128.63 -53.39 78.68
-128.82 -55.89 78.24
-129.15 -58.39 77.85
-129.06 -60.46 76.29
-128.99 -62.4 74.44
-128.98 -64.79 73.19
-129.01 -67.15 71.96
-128.97 -69.58 70.84
-129.28 -72.05 69.98
-129.48 -74.55 69.36
-130.01 -77.21 68.65
-130.42 -79.71 67.63
-130.79 -82.03 66.21
-133.82 81.84 81.46
-134.36 84.47 80.38
-133.19 79.09 82.22
-132.49 76.28 82.7
-131.95 73.65 83.71
-131.93 71.29 85
-131.87 68.9 86.17
-131.5 66.27 86.57
-131.13 63.64 86.94
-130.87 61.02 87.58
-130.68 58.45 88.47
-130.46 55.86 89.34
-130.18 53.24 90.02
-129.88 50.44 90.31
-129.64 47.69 90.79
-129.42 44.94 91.36
-129.23 42.2 92.03
-128.71 39.37 92.41
-128.45 36.65 93.48
-128.03 33.86 94.03
-127.47 31.03 94.24
-127.19 28.41 94.71
-126.88 25.78 95.12
-126.32 23.16 94.88
-125.8 20.53 94.74
-125.36 17.84 94.64
-124.86 15.16 94.43
-124.49 12.44 94.52
-124.2 9.71 94.8
-123.95 6.88 94.78
-123.68 4.05 94.73
-123.4 1.23 94.62
-123.18 -1.6 94.69
-123.37 -4.41 94.84
-123.31 -7.12 94.32
-123.16 -9.79 93.63
-122.95 -12.42 92.76
-123.09 -14.99 92.12
-123.27 -17.57 91.56
-123.4 -20.13 90.9
-123.5 -22.66 90.14
-123.53 -25.22 89.42
-123.57 -27.78 88.7
-123.68 -30.42 88.22
-123.74 -33.02 87.62
-123.94 -35.69 86.77
-124.14 -38.36 85.91
-124.27 -40.96 84.88
-124.51 -43.67 84.17
-124.44 -46.18 83.04
-124.36 -48.68 81.9
-124.32 -51.14 80.87
-124.34 -53.66 80.01
-124.65 -56.22 79.72
-124.85 -58.64 79.12
-124.76 -60.62 77.46
-124.57 -62.46 75.52
-124.49 -64.69 73.94
-124.51 -67.1 72.74
-124.57 -69.65 71.8
-124.65 -72.26 70.99
-125.14 -74.86 70.13
-125.57 -77.36 69.04
-126.01 -79.84 67.96
-126.39 -82.16 66.58
-129.58 82.52 82.46
-130.23 85.32 82
-128.9 79.77 83.09
-128.4 77.11 83.84
-127.98 74.41 84.96
-127.56 71.77 85.9
-127.33 69.24 86.57
-127.15 66.76 87.43
-126.86 64.14 88.01
-126.52 61.49 88.81
-126.36 58.96 89.84
-126.14 56.38 90.8
-125.97 53.53 91.15
-125.51 50.64 91.5
-125.42 47.93 92.31
-125.22 45.19 93.14
-125.05 42.45 93.81
-124.64 39.66 94.38
-124.31 36.88 95.2
-123.77 34.05 95.42
-123.26 31.23 95.69
-122.78 28.52 96.11
-122.44 25.87 96.38
-121.98 23.27 96.26
-121.42 20.65 96.06
-121.04 17.96 96.08
-120.68 15.29 96.36
-120.38 12.57 96.56
-120.17 9.75 96.72
-119.91 6.93 96.66
-119.55 4.12 96.37
-119.27 1.3 96.28
-119.07 -1.54 96.32
-119.25 -4.36 96.51
-119.22 -7.1 96.08
-119.04 -9.77 95.31
-119 -12.5 94.8
-118.91 -15.21 94.19
-119.08 -17.79 93.59
-119.2 -20.38 92.98
-119.3 -22.91 92.18
-119.31 -25.47 91.43
-119.31 -28 90.63
-119.33 -30.55 89.87
-119.45 -33.15 88.84
-119.6 -35.8 87.91
-119.83 -38.5 87.17
-120.05 -41.2 86.43
-120.26 -43.87 85.57
-120.32 -46.42 84.63
-120.24 -48.94 83.59
-120.24 -51.46 82.7
-120.29 -53.99 81.83
-120.1 -56.26 80.6
-120.22 -58.48 79.45
-120.33 -60.66 78.2
-120.24 -62.81 76.84
-120.26 -65.2 75.6
-120.18 -67.48 74.2
-120.23 -70.02 73.25
-120.52 -72.67 72.16
-120.81 -75.19 70.96
-121.18 -77.58 69.65
-121.52 -79.9 68.24
-121.92 -82.27 66.97
-125.25 83.17 83.41
-125.88 85.88 82.84
-124.6 80.45 83.94
-124.22 77.72 84.75
-123.94 75.09 85.93
-123.46 72.43 86.81
-122.93 69.71 87.46
-122.73 67.14 88.15
-122.59 64.64 89.06
-122.25 62 89.9
-121.95 59.4 90.9
-121.96 56.7 91.92
-121.73 53.8 92.2
-121.47 50.99 93.04
-121.27 48.22 94.07
-121.07 45.45 94.8
-120.88 42.69 95.58
-120.53 39.9 96.26
-120.06 37.06 96.59
-119.52 34.23 96.77
-119.19 31.45 97.53
-118.64 28.71 97.7
-118.07 25.97 97.81
-117.65 23.36 97.86
-117.2 20.75 97.82
-116.76 18.09 97.81
-116.45 15.42 98.16
-116.25 12.62 98.27
-115.94 9.82 98.09
-115.72 7.01 98.16
-115.43 4.19 98.08
-115.24 1.34 98.13
-115.02 -1.5 98.11
-115.03 -4.27 97.86
-115.05 -7.04 97.62
-115.01 -9.78 97.12
-114.91 -12.5 96.46
-114.83 -15.21 95.87
-114.79 -17.94 95.36
-114.95 -20.55 94.79
-115.09 -23.14 94.17
-115.09 -25.69 93.41
-115.09 -28.25 92.66
-115.19 -30.82 91.55
-115.34 -33.43 90.58
-115.56 -36.16 89.86
-115.65 -38.76 88.81
-115.73 -41.32 87.6
-115.89 -43.96 86.62
-115.94 -46.5 85.75
-115.97 -49.02 84.82
-116.06 -51.62 84.1
-116.16 -54.22 83.41
-116 -56.46 81.98
-115.78 -58.59 80.34
-115.73 -60.7 78.9
-115.82 -63.01 77.89
-115.91 -65.56 77.02
-115.85 -67.86 75.66
-116.07 -70.39 74.35
-116.45 -73.24 73.66
-116.73 -75.78 72.45
-116.87 -78.01 70.66
-117.13 -80.1 68.85
-117.46 -82.37 67.36
-120.93 83.58 83.84
-121.35 86.18 83.25
-120.43 80.92 84.76
-120.24 78.29 85.68
-119.85 75.73 86.84
-119.39 73.08 87.68
-118.97 70.39 88.56
-118.52 67.71 89.38
-118.27 65.1 89.93
-117.89 62.43 90.71
-117.77 59.68 91.68
-117.62 56.89 92.64
-117.53 54.11 93.38
-117.25 51.28 94.27
-116.99 48.44 95.07
-116.61 45.56 95.63
-116.37 42.76 96.18
-116.01 39.98 96.85
-115.62 37.17 97.41
-115.23 34.39 98.02
-114.97 31.62 98.96
-114.53 28.91 99.33
-113.9 26.15 99.26
-113.4 23.47 99.53
-113.04 20.85 99.72
-112.61 18.2 99.71
-112.34 15.45 99.77
-112.11 12.66 99.75
-111.7 9.9 99.43
-111.54 7.08 99.65
-111.31 4.26 99.65
-111.1 1.42 99.6
-110.91 -1.42 99.76
-110.84 -4.17 99.3
-110.76 -6.92 98.71
-110.8 -9.71 98.47
-110.76 -12.46 97.96
-110.67 -15.19 97.39
-110.65 -17.93 96.92
-110.56 -20.62 96.27
-110.66 -23.19 95.59
[...]
CELL_DATA 49152
SCALARS Temperature float 1
LOOKUP_TABLE default
231.152
209.348
32.1204
12.8959
12.2293
16.6743
42.0264
24.965
23.9624
22.9043
17.187
27.865
18.7433
46.5692
42.5415
60.2356
65.6139
253.103
94.2424
221.727
16.1449
9.52168
1.88709
1.66389
1.63536
2.35305
2.08368
1.3569
1.62568
1.4699
0.898761
1.00268
0.594478
0.430097
0.729076
0.593199
0.824136
1.03444
0.577732
0.493596
0.367763
0.760053
0.583284
0.842
0.692647
0.255491
0.583515
0.484204
0.493116
0.0522843
0.0725448
0.0631619
0.336513
0.0107408
0.0250298
0.0278249
0.00623416
0.00581648
0.0196331
0.00415154
0.00109725
0.00540276
0.00358318
0.00196525
0.00551421
0.00452552
0.000257847
0.000796966
0.000303106
0.000277765
0.000275605
0.000256043
0.000260753
0.000193225
0.000242845
0.000154737
0.000196414
0.000205178
3.27788e-05
0.000254377
0.000179391
3.62059e-05
5.45551e-05
6.25743e-05
5.45442e-05
7.06634e-05
7.57905e-05
5.61569e-05
5.53328e-05
6.82394e-05
0.000103235
2.44318e-05
6.793e-05
2.71367e-05
1.43229e-05
3.92215e-05
3.94896e-05
9.75072e-06
1.27925e-05
9.45231e-06
1.09192e-05
4.27987e-06
5.39052e-06
3.54084e-06
3.3158e-06
2.4522e-06
1.79867e-06
1.19557e-06
1.28126e-06
1.55896e-06
1.83935e-06
2.35418e-06
1.71047e-06
2.35271e-06
1.21882e-06
3.65015e-07
4.36095e-07
5.18694e-07
6.88718e-07
5.00574e-07
3.54356e-07
3.47208e-07
4.72163e-07
5.00043e-07
5.24226e-07
5.63194e-07
6.48839e-08
7.01779e-08
252.155
259.575
217.606
56.6552
186.406
232.188
45.0353
44.1016
31.5471
27.5819
11.5553
13.312
14.4455
175.879
232.398
36.2038
31.72
19.4294
16.6069
19.9302
7.81786
2.99201
2.49612
1.61035
2.01909
1.76699
2.91961
6.70367
6.32671
10.2469
0.96751
4.1609
1.04152
1.177
0.804758
0.944626
1.00735
0.210374
0.231117
0.220412
0.470379
0.972512
0.926877
0.838503
0.0625158
0.0326426
0.0486934
0.0183836
0.0077587
0.0371382
0.0363483
0.039112
0.00890684
0.0112047
0.0120497
0.0129769
0.0136205
0.0143041
0.0298518
0.0381175
0.00875869
0.0332325
0.0193058
0.0026948
0.00271715
0.00214541
0.000375735
0.000341363
0.000362064
0.000184539
0.000260892
7.66074e-05
7.18078e-05
0.000167099
7.01769e-05
0.000222794
6.85438e-05
0.000207511
8.40949e-05
4.54014e-05
7.49858e-05
0.000173498
3.72739e-05
4.6453e-05
3.42723e-05
4.03661e-05
7.46299e-05
8.09228e-05
8.22485e-05
7.1533e-05
7.79323e-05
7.62368e-05
2.3197e-05
6.19109e-05
1.79057e-05
1.41442e-05
1.16162e-05
9.93858e-06
1.03041e-05
1.13928e-05
1.04755e-05
5.364e-06
5.35358e-06
2.60389e-06
2.54083e-06
2.49322e-06
2.05419e-06
1.96227e-06
1.8799e-06
1.65395e-06
2.29063e-06
1.1807e-06
2.50936e-06
1.91585e-06
4.76231e-07
4.80878e-07
5.6966e-07
5.02402e-07
4.96852e-07
4.39911e-07
4.49533e-07
4.9046e-07
4.80769e-07
5.2036e-07
5.40548e-07
4.87958e-07
8.72986e-08
7.46043e-08
251.752
249.669
213.593
204.205
69.6679
246.61
43.8259
52.5218
195.339
36.7163
30.8249
41.2574
43.3239
26.7958
26.4325
17.2233
36.5595
28.0568
14.847
23.4105
21.0901
21.1379
19.2223
2.94082
3.68188
2.05266
2.01799
4.22116
1.06941
1.42995
1.66749
1.40851
1.58802
2.37503
1.24345
1.41068
0.628056
1.32483
0.789493
0.472217
0.951491
0.122572
0.373115
0.139039
0.0788258
0.0325694
0.00650904
0.00523641
0.00565951
0.0299132
0.0267414
0.0103267
0.0137283
0.0125383
0.0105561
0.00934724
0.00938416
0.0292321
0.0389367
0.0485784
0.04062
0.0269131
0.0236653
0.00899957
0.00075938
0.000886159
0.000417067
0.00026435
0.000449469
0.000450985
0.000202827
0.00032699
6.00199e-05
5.32666e-05
5.2983e-05
5.5843e-05
5.30117e-05
5.08767e-05
5.60528e-05
5.35043e-05
4.62129e-05
7.36008e-05
3.19946e-05
5.1442e-05
6.99151e-05
3.67194e-05
7.49852e-05
9.45561e-05
6.31352e-05
7.26133e-05
6.46378e-05
6.31868e-05
1.82737e-05
1.67002e-05
1.4878e-05
1.45836e-05
1.30227e-05
1.01402e-05
9.03246e-06
8.56713e-06
7.16983e-06
7.23308e-06
7.02477e-06
5.85995e-06
6.24321e-06
8.03887e-06
6.72072e-06
8.4638e-06
1.19031e-06
1.18451e-06
5.83729e-07
3.32135e-07
3.55039e-07
2.36341e-07
3.81817e-07
3.15067e-07
3.7472e-07
2.49073e-07
3.76254e-07
4.05986e-07
5.28345e-07
4.27225e-07
5.52092e-07
6.04268e-07
5.16609e-07
5.15195e-07
1.96455e-07
4.0051e-08
61.6953
206.561
52.4963
27.2725
69.8424
62.307
60.9832
45.2017
274.852
210.271
245.395
28.5584
45.5332
21.8851
51.8308
37.9586
46.5898
56.3458
203.687
240.705
214.083
191.367
148.537
115.334
22.7602
18.7027
18.5112
1.69597
1.39907
1.79245
2.88816
3.00704
2.7714
0.977716
0.868616
2.9785
1.49501
1.07979
0.236056
0.155175
0.563517
0.770157
0.634574
0.763388
0.0364447
0.020234
0.0136495
0.00808408
0.0165862
0.0625057
0.0204641
0.0184945
0.0510501
0.0149803
0.00993834
0.0554173
0.0127744
0.0304345
0.0588886
0.029771
0.0294603
0.0103263
0.0121474
0.0100965
0.0559009
0.00218242
0.00197114
0.000845766
0.00035158
0.000380952
6.79331e-05
4.68735e-05
5.10473e-05
5.7751e-05
6.28079e-05
6.41937e-05
6.02247e-05
6.06268e-05
5.66218e-05
5.46505e-05
0.000179078
0.000148712
0.000123598
0.000107479
5.29961e-05
5.13449e-05
8.87421e-05
5.55194e-05
2.1039e-05
2.10657e-05
1.83382e-05
2.71652e-05
7.99199e-06
8.94992e-06
1.07218e-05
1.48042e-05
1.33809e-05
1.24032e-05
1.07759e-05
6.95859e-06
5.03948e-06
5.06269e-06
5.12243e-06
5.61308e-06
7.14837e-06
8.05256e-06
7.92621e-06
5.88959e-06
4.53037e-07
4.25883e-07
4.00293e-07
3.67561e-07
1.6081e-07
1.64171e-07
1.55713e-07
1.50402e-07
1.53894e-07
1.52442e-07
3.85435e-07
3.90691e-07
4.10344e-07
3.93105e-07
5.28338e-07
5.78655e-07
6.25723e-07
6.57995e-07
8.96009e-07
8.95589e-07
60.4994
22.4713
60.6665
53.3828
55.5306
80.3662
206.742
159.697
151.026
276.92
194.536
288.555
262.16
56.027
162.924
59.4352
182.77
47.9541
226.516
182.035
194.658
154.074
23.8747
22.5663
28.2495
24.4456
23.8358
9.35869
6.24491
5.68196
3.8681
4.32585
0.971403
1.41185
3.12646
2.70446
0.856811
3.15046
3.90377
1.14787
5.20616
0.560224
0.534283
0.964506
0.870063
0.528653
0.0304527
0.0542651
0.0609936
0.0470759
0.0236925
0.0815681
0.0593246
0.0810887
0.0758436
0.075356
0.0419666
0.0208758
0.0103737
0.00748116
0.00985587
0.0102331
0.00942519
0.010723
0.0588941
0.0608001
0.000907747
0.00137595
0.00100943
0.000347162
0.000184437
0.000247404
7.55103e-05
7.44812e-05
7.19137e-05
7.00839e-05
0.000118722
6.84233e-05
0.000240882
0.00023309
0.000212609
0.00019733
0.000167604
0.000146354
0.000116913
5.04594e-05
1.24861e-05
2.77065e-05
1.74959e-05
2.14621e-05
1.88877e-05
1.69724e-05
1.71466e-05
1.13335e-05
9.53148e-06
1.40669e-05
5.93147e-06
1.01939e-05
9.33497e-06
9.69317e-06
9.07955e-06
8.5716e-06
8.14119e-06
8.00002e-06
8.81787e-06
6.69532e-07
1.17621e-06
7.53056e-07
6.16327e-07
2.78415e-07
1.50606e-07
3.40329e-07
2.53907e-07
2.32894e-07
1.93044e-07
1.51979e-07
1.53164e-07
3.70087e-07
3.84894e-07
3.52627e-07
3.88324e-07
2.9064e-07
3.22144e-07
1.81854e-07
4.75558e-07
6.47621e-07
7.09347e-07
6.92283e-07
103.286
67.3751
68.0303
64.6557
201.781
176.338
247.987
226.262
189.271
213.531
107.277
195.454
199.02
243.942
249.301
51.279
195.095
179.365
221.121
239.531
236.489
220.571
40.6828
36.9492
29.9057
30.6983
19.6011
124.608
8.27628
10.4414
8.36593
11.2499
4.64986
7.98331
5.92961
5.04611
3.35734
3.81713
4.74737
1.65215
0.685126
0.125501
0.143578
0.215644
0.800742
0.107532
0.0862
0.0731324
0.0877628
0.0806045
0.0984349
0.10312
0.0893705
0.0825324
0.0168833
0.0699623
0.00658755
0.0046995
0.00597994
0.00969061
0.00843083
0.00714203
0.00879809
0.00742454
0.00249881
0.00324037
7.21264e-05
0
1.04253e-05
0.00047889
0.000397091
0.000139452
5.72379e-05
4.44236e-05
8.96852e-05
9.25665e-05
0.000165823
0.000187184
0.00017658
0.000214905
0.000199064
0.000191868
0.000172446
0.000161501
0.000135671
9.33007e-05
1.97371e-05
6.60188e-06
2.52745e-05
6.54807e-06
7.73519e-06
4.27081e-06
2.65304e-06
1.69899e-06
1.82549e-06
1.01247e-05
1.64628e-06
1.40591e-06
1.36565e-06
1.73028e-06
1.36356e-06
4.77483e-06
5.47719e-06
7.45924e-06
3.9435e-06
6.38754e-07
1.93918e-07
1.50289e-07
1.48314e-07
4.41243e-07
2.34046e-07
1.62124e-07
3.64771e-07
4.71245e-07
2.04417e-07
1.96571e-07
3.90292e-07
2.9209e-07
3.65302e-07
4.40332e-07
2.9199e-07
2.85353e-07
1.93871e-07
1.24376e-07
2.11193e-07
5.1966e-07
5.64811e-07
6.82155e-07
225.252
208.765
254.635
71.9171
233.063
184.152
242.071
245.703
194.745
204.541
205.693
61.534
136.459
108.257
68.3977
237.685
203.857
223.213
240.179
247.324
239.655
258.083
222.627
51.6216
185.268
168.957
214.606
195.683
47.5777
212.8
167.806
238.641
221.506
22.1745
18.165
15.0138
11.1143
9.36281
9.78038
10.0593
0.0381274
0.0761005
0.110982
0.61873
0.706666
0.1424
0.0800229
0.11278
0.0908384
0.0849743
0.105629
0.0700017
0.0798244
0.00608448
0.00923345
0.00828006
0.00597414
0.00308947
0.00651553
0.00357384
0.00349357
0.00764662
0.00922151
0.0562825
7.92682e-06
4.53649e-06
3.71433e-05
5.20219e-05
0.000193498
3.19802e-05
1.1301e-05
1.43967e-05
1.23444e-05
1.49626e-05
2.04238e-05
5.70708e-05
2.11217e-05
2.22955e-05
1.97747e-05
2.03571e-05
1.17583e-05
1.23218e-05
7.9699e-06
6.98889e-06
4.42595e-06
5.46227e-05
5.77788e-05
1.11431e-05
3.43055e-05
3.63415e-05
1.12312e-05
9.01637e-06
9.59684e-06
1.88029e-06
2.0039e-06
1.74641e-06
1.63932e-06
1.54257e-06
1.07834e-06
1.23961e-06
1.53683e-06
1.43588e-06
1.50627e-06
1.3478e-06
6.51952e-07
1.62722e-07
2.02288e-07
2.29417e-07
2.45151e-07
2.31397e-07
2.57556e-07
2.42764e-07
4.33155e-07
2.59165e-07
1.66719e-07
1.62874e-07
1.51982e-07
1.85977e-07
4.24469e-07
4.02208e-07
3.19386e-07
3.68153e-07
3.86672e-07
4.28615e-07
4.80739e-07
5.04106e-07
5.20116e-07
6.06082e-07
247.141
186.961
233.846
238.119
244.888
245.554
258.089
269.443
249.849
228.228
259.241
206.156
220.945
166.667
64.5621
58.1793
217.899
149.218
157.536
229.671
207.245
235.118
213.891
202.852
220.93
215.955
144.334
220.347
35.9013
26.9056
25.0385
26.4083
23.4624
31.0321
18.8203
22.6739
13.9343
25.8068
22.3114
9.6207
8.16957
7.668
4.33911
1.37541
1.1906
0.58768
0.794808
0.567386
0.0207993
0.0371201
0.0708861
0.0594458
0.0211123
0.0124839
0.00968122
0.00755676
0.00243267
0.00498583
0.00383721
0.00796922
0.00575464
0.00100278
0.00327012
0.000471023
0.000339273
0.000171132
0.000154419
3.64636e-05
0.000110734
0.000156065
8.46734e-05
1.45088e-05
8.76003e-05
1.71e-05
9.19005e-05
7.91949e-05
0.000192408
6.11289e-05
5.27789e-06
4.70638e-06
5.75834e-06
5.05016e-06
4.78862e-06
4.99285e-06
3.96665e-06
3.33163e-06
1.36989e-06
2.19e-06
3.0323e-06
4.31436e-06
1.49411e-06
2.67718e-06
2.07301e-06
4.5698e-06
1.32536e-06
1.52081e-06
1.28684e-06
1.37831e-06
3.55607e-06
3.35274e-06
1.07345e-06
1.35849e-06
1.26978e-06
9.50968e-07
8.84374e-07
1.86961e-07
1.82628e-07
2.71606e-07
2.40263e-07
2.6704e-07
2.57091e-07
2.26547e-07
2.16672e-07
2.29909e-07
1.67437e-07
1.66454e-07
1.60256e-07
9.66203e-08
2.32566e-07
3.44686e-07
4.5273e-07
5.86822e-07
7.4973e-07
6.4853e-07
7.24801e-07
5.96476e-07
5.35857e-07
2.78598e-07
267.334
109.197
141.01
119.683
71.4215
61.6024
226.468
225.248
73.9877
228.546
133.247
278.821
256.521
272.319
297.717
67.0071
235.794
185.357
52.277
47.3404
45.3268
208.71
34.956
206.967
33.6175
31.9836
29.6319
36.3561
30.8806
44.3464
40.791
41.5009
40.9616
37.9936
33.7661
32.5621
32.8183
30.506
18.546
6.38353
6.2023
19.1678
1.0686
1.3591
0.821025
0.384168
0.607319
0.422891
0.370101
0.368604
0.25118
0.204286
0.0427999
0.042036
0.0282799
0.0185798
0.00591952
0.0100872
0.0147911
0.0653533
0.00351132
0.000808497
0.000103097
6.48844e-05
6.23238e-05
6.46086e-05
3.07642e-05
2.812e-05
3.01273e-05
2.37624e-05
1.53483e-05
1.36717e-05
2.11278e-05
1.88155e-05
2.02149e-05
8.95412e-05
0.000458129
9.88128e-05
9.9679e-05
3.42779e-05
1.20288e-05
8.03207e-06
8.24328e-06
2.1384e-06
1.96648e-06
3.5102e-06
2.54429e-06
1.15586e-06
1.96392e-06
2.79731e-06
3.63383e-06
3.91681e-06
3.11916e-06
5.23284e-06
4.03958e-06
1.23111e-06
2.60769e-06
2.7359e-06
2.69369e-06
3.24475e-06
3.10489e-06
1.06337e-06
3.27366e-07
4.13256e-07
1.10546e-07
5.30421e-08
5.63175e-08
1.35666e-07
1.75388e-07
1.5711e-07
2.25979e-07
1.98296e-07
2.25585e-07
2.00275e-07
2.21699e-07
2.109e-07
1.45204e-07
1.59056e-07
1.67073e-07
1.22817e-07
1.91351e-07
1.95026e-07
4.39655e-07
5.22815e-07
6.12642e-07
7.47098e-07
6.6954e-07
7.95078e-07
252.608
288.786
260.758
253.07
252.251
207.049
235.391
269.147
271.917
168.187
214.172
90.0787
178.592
94.772
214.672
261.022
233.703
229.288
77.2624
205.447
56.5812
67.1628
66.207
59.3865
57.0975
42.3052
40.7059
40.658
39.749
37.612
34.7968
34.4071
33.7888
31.9792
29.0802
30.029
30.5063
9.9998
8.46412
8.98837
16.8424
26.1968
13.0194
0.611185
0.558624
0.49314
0.367113
0.436832
0.324687
0.553324
0.381291
0.00650205
0.0598046
0.0766483
0.0622238
0.0543313
0.0141451
0.0160674
0.0522964
0.0973065
0.00251741
0.000386988
0.000157598
9.8196e-05
4.35653e-05
4.70487e-05
2.97625e-05
2.57359e-05
2.16164e-05
1.59418e-05
3.01825e-05
1.88668e-05
3.12623e-05
2.85758e-05
1.7241e-06
8.25835e-06
8.88706e-07
2.79513e-06
1.97333e-06
1.23161e-06
1.55764e-06
9.03299e-06
9.38096e-06
1.05702e-05
7.8493e-06
2.58215e-06
1.69156e-06
1.51241e-06
4.70155e-06
4.00577e-06
5.7917e-06
6.98068e-06
8.74987e-06
6.16107e-06
5.69375e-06
5.30736e-06
5.36453e-06
5.10863e-06
5.28508e-06
5.27682e-06
5.12402e-06
4.16199e-06
3.26428e-06
3.76602e-07
2.33139e-07
2.42493e-07
2.17983e-07
1.81744e-07
1.85433e-07
1.36497e-07
1.40726e-07
2.48576e-07
1.55515e-06
2.31348e-07
1.73485e-06
2.37141e-07
1.56858e-07
1.67859e-07
1.62627e-07
1.35988e-07
1.527e-07
2.23983e-07
2.15643e-07
2.8642e-07
3.34922e-06
1.16285e-06
3.22956e-06
1.22279e-06
272.565
285.722
289.99
268.307
274.814
254.216
292.578
213.585
257.748
234.724
231.962
152.997
170.842
206.274
145.123
112.676
69.2321
126.387
189.936
202.812
112.618
57.1371
52.3878
52.3988
49.4334
48.6857
45.3447
38.7227
35.7012
32.3136
29.9017
32.3262
33.0945
14.6899
18.8058
15.5281
10.9742
10.9509
10.5383
10.2696
20.6613
10.6461
8.23034
8.34517
7.54964
1.08245
0.872186
3.422
2.66097
0.124715
0.0517319
0.0839511
0.0860442
0.100089
0.0738524
0.103656
0.544228
0.48769
0.656978
0.46702
0.0172162
0.0145552
0.0121017
0.00876703
0.00645036
0.00106631
0.00141746
3.33477e-05
3.45659e-05
3.58176e-05
3.59883e-05
3.43026e-05
1.26313e-05
2.4573e-05
7.26087e-06
1.90784e-05
5.17005e-07
6.0834e-07
4.763e-07
3.34371e-07
1.24357e-06
1.4189e-06
1.40809e-06
9.53659e-06
8.73607e-06
7.43664e-06
6.95041e-06
4.58434e-06
8.46453e-06
6.92783e-06
8.11019e-06
8.14636e-06
8.04847e-06
8.37785e-06
7.97523e-06
8.28542e-06
7.87619e-06
4.37593e-06
4.28728e-06
4.00672e-06
3.87175e-06
3.68976e-06
3.50125e-06
2.14731e-06
1.89064e-07
1.9212e-07
1.81584e-07
1.90414e-07
1.90644e-07
1.90057e-07
1.79545e-07
1.83089e-07
1.89807e-07
1.98316e-07
1.77743e-07
1.85553e-07
1.75865e-07
1.75568e-07
1.63655e-07
1.64375e-07
2.22229e-07
2.59811e-07
2.79486e-07
2.68939e-07
2.72004e-06
3.96435e-06
4.61844e-06
3.29331e-06
251.159
264.419
214.726
214.122
183.762
217.194
258.04
259.431
186.499
265.506
256.802
245.87
272.759
279.826
191.23
202.985
190.363
209.566
210.867
200.718
125.416
67.2534
57.4924
58.8749
52.7097
49.0671
47.8161
60.3467
55.4708
49.5388
44.2912
38.8008
33.1375
25.8834
28.4679
11.5199
14.0437
10.7358
10.482
10.052
10.104
8.48657
7.84382
8.26862
6.12224
8.21813
8.37018
7.83969
3.13045
1.99547
1.78777
1.2888
1.08415
0.957821
0.752492
0.546254
0.418017
0.237747
0.250613
0.205014
0.0398364
0.128764
0.0142928
0.00597576
0.00460322
0.00208722
0.00101706
0.00137952
0.00122456
2.54888e-05
2.53534e-05
4.1898e-06
1.20605e-06
1.62063e-06
1.90787e-06
2.42043e-06
1.3967e-06
1.14194e-06
8.90567e-07
3.31861e-07
9.86279e-07
1.21295e-06
1.18156e-06
1.19423e-06
1.00188e-06
4.19562e-06
5.80945e-07
7.12948e-06
7.04084e-06
7.79342e-06
7.61468e-06
6.52535e-06
6.52835e-06
4.79878e-06
3.78621e-06
1.22737e-06
2.1032e-06
2.31299e-06
2.08215e-06
2.68235e-07
2.37026e-07
2.77122e-06
2.49417e-06
1.795e-06
2.06002e-07
2.01155e-07
1.33233e-07
2.46993e-07
1.40484e-07
1.50937e-07
1.40472e-07
1.48892e-07
1.44651e-07
1.58994e-07
1.52005e-07
1.60772e-07
1.54389e-07
1.40424e-07
2.61934e-07
1.10778e-07
2.87674e-07
3.837e-07
4.46736e-07
6.94373e-07
7.95002e-07
1.99473e-06
5.79778e-06
6.5567e-06
288.563
287.481
254.724
266.948
192.589
223.336
223.421
205.851
103.026
112.274
208.164
207.945
281.62
272.574
252.137
252.322
276.406
280.789
249.585
236.358
185.984
205.953
186.366
232.581
151.532
222.596
62.9253
74.1359
54.5314
52.7048
39.2029
28.8414
29.3578
17.301
19.8088
21.3164
21.5038
10.7882
13.3299
9.49165
7.02205
4.64646
7.91293
5.19524
9.30795
8.45552
9.89066
6.36512
3.07873
7.30153
2.10497
6.28295
1.28057
0.49576
0.266185
0.270117
0.210628
0.195737
0.160617
0.0552515
0.129529
0.142673
0.0184974
0.134733
0.0105941
0.0871719
6.76945e-05
2.34372e-05
6.01859e-06
7.6694e-06
2.0445e-06
1.61359e-05
3.61127e-07
3.42406e-07
3.48181e-07
1.39707e-06
3.23859e-07
1.60212e-06
1.61009e-06
1.09957e-06
1.41139e-06
1.1037e-06
1.19546e-06
1.12998e-06
8.4629e-07
7.42842e-07
7.251e-07
2.80255e-07
1.57406e-06
1.95688e-06
2.93705e-06
1.83869e-06
2.14731e-06
1.75532e-07
5.74594e-10
7.24937e-10
1.05061e-09
2.46921e-06
2.22357e-06
2.71548e-06
2.59149e-06
4.60375e-07
6.65859e-08
1.55792e-07
1.29111e-07
7.43442e-08
7.47318e-08
8.32472e-08
8.46493e-08
1.50431e-07
1.45138e-07
1.20532e-07
1.15803e-07
1.26556e-07
1.29057e-07
1.24721e-07
2.33707e-07
2.46604e-07
2.61476e-07
2.5826e-07
3.38402e-07
3.33967e-07
3.90432e-07
6.12734e-07
7.41709e-07
8.7443e-07
1.05407e-06
6.57704e-06
304.94
308.824
288.779
295.393
266.298
266.962
227.5
231.941
160.23
196.381
159.122
182.826
205.754
188.905
176.894
169.292
260.459
200.293
258.973
265.224
245.956
261.129
270.853
270.322
302.056
303.802
256.551
252.838
3.02833
2.05489
38.2741
33.8613
18.8302
13.6916
14.59
16.564
15.1712
17.4346
14.7026
19.8454
17.8283
14.9582
12.5573
10.1788
8.83952
8.1806
4.10039
8.64608
7.1655
10.1581
5.70434
10.1048
2.27477
0.749147
0.551913
0.0908162
0.213459
0.218588
0.152792
0.0794091
0.165372
0.0296546
0.137375
0.0460095
4.63714e-05
4.43304e-05
5.64011e-06
1.43079e-06
6.8847e-07
4.35471e-06
1.16516e-05
1.51598e-05
1.00988e-05
1.5255e-06
1.56717e-06
1.35603e-06
3.72706e-07
3.43942e-07
7.40201e-07
1.20278e-06
1.12705e-06
1.43117e-06
1.29354e-06
1.32752e-06
7.00685e-07
1.10319e-06
1.06897e-06
9.44761e-07
3.20932e-08
4.29859e-08
3.08611e-08
2.74041e-08
1.17878e-08
7.83013e-09
8.56143e-09
7.85019e-09
8.20881e-10
1.19257e-09
1.49363e-08
1.09608e-08
2.96823e-08
1.70554e-07
1.33506e-07
1.80782e-07
1.63774e-07
3.48056e-08
2.74673e-08
2.22388e-08
2.35374e-08
1.14746e-07
1.26173e-07
6.75922e-08
7.47331e-08
5.85923e-08
1.85923e-07
1.69367e-07
1.7988e-07
2.18744e-07
1.69927e-06
3.114e-07
2.65111e-06
4.02067e-07
3.74687e-06
5.89001e-07
4.74641e-06
3.82983e-06
4.30725e-06
4.84117e-06
321.9
324.561
313.779
310.305
303.14
301.599
291.858
296.292
282.365
294.254
244.915
255.384
190.799
191.327
154.327
79.6958
90.0729
103.61
88.0135
198.395
242.493
210.22
294.265
285.368
339.39
336.042
319.433
321.979
206.978
48.9582
71.0658
61.7415
38.8412
28.4786
19.1791
19.482
22.5416
25.6138
24.862
27.4923
21.9908
15.7619
10.745
10.8875
8.46113
10.4799
9.09186
11.414
13.0429
13.0425
11.1829
14.2921
0.147745
0
0.0430609
0.0450846
0.109506
0.0112203
0.0180908
0.0023339
0.00952072
0.00953931
0.0137796
0
7.24179e-05
6.27085e-05
9.49843e-06
4.03656e-06
3.43417e-06
3.99542e-06
9.50255e-06
1.47487e-05
1.054e-05
1.62077e-05
1.69592e-05
8.15645e-06
1.36301e-06
7.65987e-07
1.13362e-06
1.15456e-06
1.03325e-06
1.14402e-06
7.88757e-07
1.22328e-06
4.71544e-07
4.95573e-07
6.88905e-07
9.44967e-07
4.11038e-08
1.47052e-08
1.07386e-08
1.00239e-08
4.41539e-09
8.61319e-09
6.9185e-09
6.85743e-09
0
0
1.835e-09
7.57888e-10
1.13276e-09
2.07158e-07
2.09126e-07
4.84648e-08
8.53102e-08
2.89453e-08
1.80828e-08
1.71265e-08
1.07927e-08
1.84239e-08
5.93944e-09
7.47296e-08
1.72546e-07
1.34743e-07
6.52946e-07
1.46948e-06
1.49553e-06
1.56812e-06
1.0862e-06
1.96931e-06
9.72431e-07
4.36105e-06
5.43028e-06
3.25824e-06
3.74969e-06
5.14875e-06
5.15366e-06
5.36397e-06
340.82
337.749
330.716
333.113
314.694
317.226
312.499
314.997
328.38
327.445
320.249
321.77
289.862
289.035
225.455
254.559
274.253
223.182
276.502
265.822
250.509
248.884
279.804
276.805
277.526
346.319
314.386
350.362
311.999
272.878
277.152
96.1092
77.0725
254.541
193.955
205.401
44.5157
39.0799
31.6431
21.6268
14.4
25.1681
17.096
24.8509
17.9814
22.1528
18.8721
19.39
23.1451
17.6231
20.8181
17.4542
9.63603
7.27754
4.89038
1.25047