# vtk DataFile Version 3.0
vtk output
ASCII
DATASET POLYDATA
POINTS 24578 float
-151.53 81.83 75.23
-146.76 79.98 77.9
-147.26 82.51 76.57
-151.22 79.35 76.36
-146.3 77.32 78.47
-150.76 76.75 77.01
-146.01 74.82 79.56
-150.4 74.19 77.98
-145.43 72.07 79.86
-149.95 71.56 78.66
-145.02 69.6 80.58
-149.55 69.11 79.46
-144.64 67.21 81.53
-149.14 66.64 80.2
-144.27 64.77 82.34
-148.68 64.12 80.8
-144.06 62.18 83.1
-148.26 61.63 81.51
-143.83 59.57 83.96
-148.2 59.14 82.73
-143.54 56.98 84.63
-148.02 56.58 83.6
-143.3 54.28 84.95
-147.52 53.77 83.62
-142.71 51.53 84.98
-147.03 50.98 83.68
-142.34 49.05 85.71
-146.66 48.52 84.06
-142.24 46.57 86.6
-146.26 46.05 84.34
-145.97 43.63 84.94
-141.82 44.09 87.11
-141.56 41.44 87.04
-145.67 41.21 85.5
-140.98 38.76 87.5
-145.29 38.66 85.7
-140.75 36.16 87.85
-144.89 36.1 85.85
-144.62 33.53 86.3
-140.46 33.57 88.45
-140.13 30.94 88.56
-144.22 30.94 86.41
-143.81 28.2 86.49
-139.84 28.2 88.9
-143.44 25.45 86.68
-139.6 25.51 89.44
-143.18 22.67 87.12
-139.22 22.78 89.44
-142.9 19.88 87.51
-138.79 20.04 89.71
-142.6 17.15 87.83
-138.39 17.32 89.75
-137.91 14.61 89.73
-142.25 14.42 88.03
-141.99 11.68 88.46
-137.6 11.89 89.94
-141.61 8.95 88.57
-137.22 9.16 90.05
-141.13 6.27 88.48
-136.86 6.45 90.3
-140.68 3.58 88.47
-136.37 3.76 90.16
-140.25 0.89 88.51
-135.88 1.07 90.03
-139.71 -1.79 88.26
-135.64 -1.76 90.02
-135.64 -4.55 89.75
-140 -4.44 88.09
-135.69 -7.09 89
-140.34 -7.12 88.03
-135.79 -9.62 88.23
-140.37 -9.69 87.25
-135.84 -12.19 87.54
-140.43 -12.27 86.54
-135.99 -14.75 87
-140.5 -14.79 85.8
-136.21 -17.35 86.64
-140.62 -17.33 85.19
-136.42 -19.93 86.21
-140.85 -19.94 84.82
-136.49 -22.42 85.34
-140.79 -22.34 83.7
-136.45 -24.91 84.43
-140.78 -24.79 82.73
-136.55 -27.44 83.74
-140.84 -27.3 81.99
-136.57 -29.97 82.98
-140.97 -29.86 81.42
-136.73 -32.54 82.43
-141.02 -32.36 80.63
-136.76 -35.12 81.64
-141.09 -34.97 79.94
-141.32 -37.69 79.69
-136.83 -37.72 80.96
-141.45 -40.33 79.13
-136.9 -40.34 80.32
-137.11 -43 79.41
-141.48 -42.91 78.35
-141.57 -45.38 77.61
-137.04 -45.54 78.64
-141.59 -47.8 76.7
-137.03 -47.91 77.56
-141.86 -50.43 76.49
-137.15 -50.39 76.9
-141.9 -52.84 75.63
-137.27 -52.84 76.11
-141.91 -55.11 74.4
-137.53 -55.19 75.26
-137.48 -57.49 74.21
-141.9 -57.35 73.07
-142.03 -59.74 72.14
-137.7 -59.92 73.43
-142.25 -62.22 71.44
-137.97 -62.48 72.92
-142.57 -64.67 70.67
-138.15 -65.14 72.4
-142.87 -67.1 69.86
-138.34 -67.41 71.12
-143.16 -69.56 69.09
-138.58 -69.8 70.17
-143.42 -71.97 68.22
-138.72 -72 68.84
-143.42 -74.03 66.78
-138.71 -74.17 67.59
-143.52 -76.26 65.69
-138.9 -76.5 66.65
-143.64 -78.59 64.8
-139.03 -78.91 65.88
-143.64 -80.66 63.43
-139.36 -81.09 64.3
-142.41 80.53 78.87
-142.88 83.09 77.59
-141.83 77.87 79.86
-141.49 75.33 80.8
-140.97 72.61 81.19
-140.47 70.13 81.77
-140.01 67.69 82.47
-139.94 65.21 83.59
-139.84 62.72 84.64
-139.44 60.04 85.13
-139.12 57.42 85.86
-138.88 54.8 86.42
-138.56 52.14 86.78
-138.19 49.56 87.25
-137.83 46.99 87.76
-137.58 44.31 88.01
-137.31 41.63 88.23
-137.03 38.95 89.21
-136.57 36.22 89.77
-136.22 33.57 90.06
-135.88 30.91 90.36
-135.74 28.24 91.1
-135.47 25.56 91.56
-134.94 22.88 91.41
-134.47 20.19 91.43
-134.08 17.49 91.57
-133.61 14.8 91.52
-133.09 12.1 91.2
-132.71 9.37 91.23
-132.3 6.67 91.32
-131.94 3.96 91.53
-131.76 1.11 91.67
-131.5 -1.71 91.62
-131.31 -4.41 90.89
-131.1 -7.09 90.13
-131.35 -9.7 89.79
-131.55 -12.29 89.33
-131.63 -14.81 88.62
-131.74 -17.34 87.96
-131.85 -19.85 87.19
-132.06 -22.42 86.66
-132.19 -25.02 86.17
-132.25 -27.57 85.48
-132.26 -30.09 84.65
-132.44 -32.72 84.26
-132.56 -35.36 83.72
-132.63 -37.97 83.04
-132.75 -40.58 81.94
-132.83 -43.16 80.72
-132.77 -45.71 79.94
-132.75 -48.3 79.25
-132.77 -50.64 78.12
-132.8 -52.99 77
-132.95 -55.32 76.2
-133.13 -57.69 75.53
-133.33 -60.11 74.69
-133.5 -62.48 73.72
-133.64 -65.09 73
-133.72 -67.59 72.04
-133.86 -69.81 70.74
-134.01 -72.03 69.43
-134.18 -74.44 68.63
-134.35 -76.86 67.84
-134.77 -79.33 66.76
-135.07 -81.54 65.2
-138.04 81.11 79.93
-138.51 83.66 78.64
-137.48 78.45 80.95
-136.81 75.7 81.58
-136.53 73.2 82.68
-136.2 70.85 83.66
-136.01 68.35 84.53
-135.78 65.76 85.17
-135.49 63.19 85.82
-135.19 60.56 86.38
-134.98 57.99 87.45
-134.76 55.37 88.25
-134.53 52.77 88.88
-134 50.11 89.1
-133.65 47.3 89.03
-133.3 44.56 89.42
-133.29 41.92 90.17
-132.89 39.2 91
-132.5 36.43 91.58
-132.05 33.68 92.21
-131.7 30.98 92.36
-131.44 28.31 92.66
-131.04 25.67 93.02
-130.62 23.02 93.01
-130.15 20.36 93.11
-129.82 17.66 93.35
-129.27 14.97 93.05
-128.74 12.27 92.73
-128.4 9.55 92.87
-127.96 6.85 92.86
-127.84 4 93.22
-127.59 1.17 93.17
-127.27 -1.64 92.97
-127.25 -4.36 92.57
-127.15 -7.08 92.07
-127.17 -9.83 91.83
-127.29 -12.38 91.16
-127.29 -14.86 90.23
-127.44 -17.42 89.6
-127.57 -19.97 88.96
-127.76 -22.53 88.35
-127.82 -25.1 87.72
-127.85 -27.64 86.95
-127.95 -30.27 86.46
-128.2 -32.95 86.24
-128.25 -35.54 85.49
-128.5 -38.26 84.8
-128.59 -40.83 83.55
-128.62 -43.36 82.3
-128.5 -45.86 81.36
-128.57 -48.51 80.64
-128.51 -50.96 79.6
-128.63 -53.39 78.68
-128.82 -55.89 78.24
-129.15 -58.39 77.85
-129.06 -60.46 76.29
-128.99 -62.4 74.44
-128.98 -64.79 73.19
-129.01 -67.15 71.96
-128.97 -69.58 70.84
-129.28 -72.05 69.98
-129.48 -74.55 69.36
-130.01 -77.21 68.65
-130.42 -79.71 67.63
-130.79 -82.03 66.21
-133.82 81.84 81.46
-134.36 84.47 80.38
-133.19 79.09 82.22
-132.49 76.28 82.7
-131.95 73.65 83.71
-131.93 71.29 85
-131.87 68.9 86.17
-131.5 66.27 86.57
-131.13 63.64 86.94
-130.87 61.02 87.58
-130.68 58.45 88.47
-130.46 55.86 89.34
-130.18 53.24 90.02
-129.88 50.44 90.31
-129.64 47.69 90.79
-129.42 44.94 91.36
-129.23 42.2 92.03
-128.71 39.37 92.41
-128.45 36.65 93.48
-128.03 33.86 94.03
-127.47 31.03 94.24
-127.19 28.41 94.71
-126.88 25.78 95.12
-126.32 23.16 94.88
-125.8 20.53 94.74
-125.36 17.84 94.64
-124.86 15.16 94.43
-124.49 12.44 94.52
-124.2 9.71 94.8
-123.95 6.88 94.78
-123.68 4.05 94.73
-123.4 1.23 94.62
-123.18 -1.6 94.69
-123.37 -4.41 94.84
-123.31 -7.12 94.32
-123.16 -9.79 93.63
-122.95 -12.42 92.76
-123.09 -14.99 92.12
-123.27 -17.57 91.56
-123.4 -20.13 90.9
-123.5 -22.66 90.14
-123.53 -25.22 89.42
-123.57 -27.78 88.7
-123.68 -30.42 88.22
-123.74 -33.02 87.62
-123.94 -35.69 86.77
-124.14 -38.36 85.91
-124.27 -40.96 84.88
-124.51 -43.67 84.17
-124.44 -46.18 83.04
-124.36 -48.68 81.9
-124.32 -51.14 80.87
-124.34 -53.66 80.01
-124.65 -56.22 79.72
-124.85 -58.64 79.12
-124.76 -60.62 77.46
-124.57 -62.46 75.52
-124.49 -64.69 73.94
-124.51 -67.1 72.74
-124.57 -69.65 71.8
-124.65 -72.26 70.99
-125.14 -74.86 70.13
-125.57 -77.36 69.04
-126.01 -79.84 67.96
-126.39 -82.16 66.58
-129.58 82.52 82.46
-130.23 85.32 82
-128.9 79.77 83.09
-128.4 77.11 83.84
-127.98 74.41 84.96
-127.56 71.77 85.9
-127.33 69.24 86.57
-127.15 66.76 87.43
-126.86 64.14 88.01
-126.52 61.49 88.81
-126.36 58.96 89.84
-126.14 56.38 90.8
-125.97 53.53 91.15
-125.51 50.64 91.5
-125.42 47.93 92.31
-125.22 45.19 93.14
-125.05 42.45 93.81
-124.64 39.66 94.38
-124.31 36.88 95.2
-123.77 34.05 95.42
-123.26 31.23 95.69
-122.78 28.52 96.11
-122.44 25.87 96.38
-121.98 23.27 96.26
-121.42 20.65 96.06
-121.04 17.96 96.08
-120.68 15.29 96.36
-120.38 12.57 96.56
-120.17 9.75 96.72
-119.91 6.93 96.66
-119.55 4.12 96.37
-119.27 1.3 96.28
-119.07 -1.54 96.32
-119.25 -4.36 96.51
-119.22 -7.1 96.08
-119.04 -9.77 95.31
-119 -12.5 94.8
-118.91 -15.21 94.19
-119.08 -17.79 93.59
-119.2 -20.38 92.98
-119.3 -22.91 92.18
-119.31 -25.47 91.43
-119.31 -28 90.63
-119.33 -30.55 89.87
-119.45 -33.15 88.84
-119.6 -35.8 87.91
-119.83 -38.5 87.17
-120.05 -41.2 86.43
-120.26 -43.87 85.57
-120.32 -46.42 84.63
-120.24 -48.94 83.59
-120.24 -51.46 82.7
-120.29 -53.99 81.83
-120.1 -56.26 80.6
-120.22 -58.48 79.45
-120.33 -60.66 78.2
-120.24 -62.81 76.84
-120.26 -65.2 75.6
-120.18 -67.48 74.2
-120.23 -70.02 73.25
-120.52 -72.67 72.16
-120.81 -75.19 70.96
-121.18 -77.58 69.65
-121.52 -79.9 68.24
-121.92 -82.27 66.97
-125.25 83.17 83.41
-125.88 85.88 82.84
-124.6 80.45 83.94
-124.22 77.72 84.75
-123.94 75.09 85.93
-123.46 72.43 86.81
-122.93 69.71 87.46
-122.73 67.14 88.15
-122.59 64.64 89.06
-122.25 62 89.9
-121.95 59.4 90.9
-121.96 56.7 91.92
-121.73 53.8 92.2
-121.47 50.99 93.04
-121.27 48.22 94.07
-121.07 45.45 94.8
-120.88 42.69 95.58
-120.53 39.9 96.26
-120.06 37.06 96.59
-119.52 34.23 96.77
-119.19 31.45 97.53
-118.64 28.71 97.7
-118.07 25.97 97.81
-117.65 23.36 97.86
-117.2 20.75 97.82
-116.76 18.09 97.81
-116.45 15.42 98.16
-116.25 12.62 98.27
-115.94 9.82 98.09
-115.72 7.01 98.16
-115.43 4.19 98.08
-115.24 1.34 98.13
-115.02 -1.5 98.11
-115.03 -4.27 97.86
-115.05 -7.04 97.62
-115.01 -9.78 97.12
-114.91 -12.5 96.46
-114.83 -15.21 95.87
-114.79 -17.94 95.36
-114.95 -20.55 94.79
-115.09 -23.14 94.17
-115.09 -25.69 93.41
-115.09 -28.25 92.66
-115.19 -30.82 91.55
-115.34 -33.43 90.58
-115.56 -36.16 89.86
-115.65 -38.76 88.81
-115.73 -41.32 87.6
-115.89 -43.96 86.62
-115.94 -46.5 85.75
-115.97 -49.02 84.82
-116.06 -51.62 84.1
-116.16 -54.22 83.41
-116 -56.46 81.98
-115.78 -58.59 80.34
-115.73 -60.7 78.9
-115.82 -63.01 77.89
-115.91 -65.56 77.02
-115.85 -67.86 75.66
-116.07 -70.39 74.35
-116.45 -73.24 73.66
-116.73 -75.78 72.45
-116.87 -78.01 70.66
-117.13 -80.1 68.85
-117.46 -82.37 67.36
-120.93 83.58 83.84
-121.35 86.18 83.25
-120.43 80.92 84.76
-120.24 78.29 85.68
-119.85 75.73 86.84
-119.39 73.08 87.68
-118.97 70.39 88.56
-118.52 67.71 89.38
-118.27 65.1 89.93
-117.89 62.43 90.71
-117.77 59.68 91.68
-117.62 56.89 92.64
-117.53 54.11 93.38
-117.25 51.28 94.27
-116.99 48.44 95.07
-116.61 45.56 95.63
-116.37 42.76 96.18
-116.01 39.98 96.85
-115.62 37.17 97.41
-115.23 34.39 98.02
-114.97 31.62 98.96
-114.53 28.91 99.33
-113.9 26.15 99.26
-113.4 23.47 99.53
-113.04 20.85 99.72
-112.61 18.2 99.71
-112.34 15.45 99.77
-112.11 12.66 99.75
-111.7 9.9 99.43
-111.54 7.08 99.65
-111.31 4.26 99.65
-111.1 1.42 99.6
-110.91 -1.42 99.76
-110.84 -4.17 99.3
-110.76 -6.92 98.71
-110.8 -9.71 98.47
-110.76 -12.46 97.96
-110.67 -15.19 97.39
-110.65 -17.93 96.92
-110.56 -20.62 96.27
-110.66 -23.19 95.59
[...]
CELL_DATA 49152
SCALARS Temperature float 1
LOOKUP_TABLE default
265.818
274.089
288.481
282.233
269.744
282.362
296.854
265.433
262.912
254.197
248.445
271.213
268.888
288.47
283.655
291.236
287.092
247.41
267.336
242.732
262.024
291.252
291.862
287.624
273.784
297.619
285.249
326.232
320.73
317.707
324.609
290.408
295.363
306.494
301.823
317.852
310.488
312.183
322.241
324.115
324.752
328.833
332.14
336.487
338.278
332.165
325.837
322.772
320.914
315.349
316.954
302.119
296.773
291.114
293.61
293.617
298.212
307.012
311.964
308.794
305.494
300.949
303.399
311.789
314.325
302.741
315.766
263.495
284.301
285.028
283.268
284.176
280.281
295.186
286.518
304.198
300.263
296.025
305.917
320.942
318.147
320.885
316.29
319.558
319.939
308.425
307.788
322.197
321.995
316.68
308.03
297.688
294.823
292.506
296.297
292.685
292.233
291.149
294.612
290.138
264.466
248.667
255.849
259.106
273.194
285.423
291.102
307.833
300.343
304.148
302.358
306.622
311.284
314.798
319.969
311.306
300.765
296.794
294.879
281.46
285.463
291.676
287.754
292.446
291.512
294.509
308.165
307.277
238.461
231.592
244.88
280.192
269.739
253.372
275.334
283.596
276.664
262.195
263.205
231.662
223.531
265.182
255.8
285.842
293.171
258.249
262.511
266.517
269.358
288.324
288.102
312.839
305.954
289.251
293.456
254.035
273.54
249.259
259.672
285.422
274.171
291.669
304.812
306.537
303.338
297.432
301.713
304.99
303.749
310.59
315.9
314.638
327.072
316.693
312.539
307.213
304.5
310.218
312.177
310.746
315.561
278.876
283.122
276.913
273.201
267.483
273.778
285.701
293.523
303.007
306.168
305.083
315.387
284.228
294.645
292.277
282.283
311.149
305.056
319.632
319.863
310.008
312.226
292.683
301.342
276.485
279.057
303.558
296.311
322.037
318.399
317.921
320.487
316.988
309.896
318.58
318.422
331.28
329.569
329.733
333.952
316.192
323.729
305.994
305.687
305.624
311.265
319.628
318.61
309.262
301.954
294.467
287.279
288.214
294.205
303.863
305.116
303.736
296.158
282.876
270.601
263.07
277.968
289.163
288.923
277.809
278.709
279.714
279.887
293.938
296.978
300.288
300.046
295.864
307.552
308.19
240.707
242.12
251.448
255.044
265.145
210.806
199.738
290.069
273.926
306.84
299.535
315.247
314.731
279.755
292.029
251.448
268.392
277.405
261.013
291.819
289.594
304.772
303.42
319.685
322.54
306.813
314.192
277.806
280.97
288.447
273.564
316.098
301.775
296.779
302.984
303.945
309.1
313.898
318.954
316.665
302.111
293.324
289.26
286.184
295.104
305.842
300.99
305.639
302.921
305.533
315.639
300.525
305.477
305.404
298.517
301.351
302.658
300.142
295.25
300.567
305.267
300.318
300.387
296.128
298.49
319.169
315.885
329.76
322.18
322.231
327.769
316.692
324.595
313.023
311.316
313.784
313.289
320.217
317.205
312.898
315.319
306.578
311.97
307.221
303.306
323.293
315.046
317.688
327.302
316.244
317.382
321.653
328.636
321.646
324.099
321.326
316.911
312.707
308.159
308.531
314.924
320.066
315.976
328.313
323.294
327.658
332.147
334.741
352.442
319.654
331.265
278.894
271.799
244.912
234.996
215.926
220.349
236.175
245.023
264.747
263.552
269.924
274.758
280.114
290.907
292.394
305.146
309.595
296.91
279.55
291.272
268.967
281.114
267.807
257.235
233.754
219.642
265.562
256.865
289.132
300.31
280.211
287.161
261.287
261.578
270.12
259.701
241.132
247.918
256.263
260.163
263.151
272.882
283.204
275.155
314.144
303.073
316.579
307.119
302.946
301.593
289.413
283.172
296.083
307.466
306.017
312.772
312.177
307.697
310.214
313.608
314.977
327.158
313.45
316.058
301.894
305.169
280.23
291.258
297.808
289.312
316.665
308.464
311.387
317.152
318.697
311.163
301.116
300.957
299.316
301.405
308.379
303.415
334.816
336.353
336.517
338.756
316.651
325.257
311.664
311.094
327.418
321.317
325.125
325.546
324.84
326.64
318.114
320.647
315.839
317.374
320.151
314.974
315.851
309.946
301.212
304.268
302.602
303.331
291.536
298.84
311.176
302.205
332.468
331.945
325.812
327.965
303.04
309.318
310.4
307.99
309.36
299.901
303.435
305.233
300.415
319.034
312.847
317.238
310.018
306.889
284.735
284.164
286.115
284.416
291.917
289.612
290.597
286.223
282.473
277.74
264.753
262.711
260.577
271.406
272.653
301.834
251.747
262.082
247.875
246.854
278.201
266.551
276.861
277.306
214.007
243.233
88.7906
130.216
250.829
244.677
268.414
256.991
269.111
256.282
271.123
269.594
277.117
288.857
261.775
273.723
274.427
256.028
289.365
287.043
293.195
296.685
296.827
306.357
311.21
299.616
293.116
299.905
290.207
288.936
294.436
286.028
282.579
281.062
277.161
288.319
298.391
297.742
292.829
288.437
297.8
300.628
312.251
315.425
317.93
316.532
314.953
318.218
317.353
321.482
307.057
308.107
308.564
305.27
304.793
299.456
300.14
312.943
318.144
321.804
317.775
314.824
334.057
330.68
328.569
327.675
325.841
326.883
328.999
331.068
329.575
329.891
328.362
329.637
325.388
326.061
310.673
318.504
297.573
302.752
296.864
294.684
302.463
300.204
318.13
315.014
306.295
311.526
323.038
322.058
326.557
323.249
330.72
328.367
328.273
317.372
292.778
277.489
257.777
260.796
296.071
290.682
325.731
316.102
333.76
332.092
320.776
316.349
315.558
312.927
308.679
303.8
294.407
291.699
284.837
278.623
266.277
265.372
269.765
246.876
260.018
258.36
249.391
243.228
251.109
237.328
251.537
256.966
248.39
256.473
241.676
241.153
211.336
208.592
261.069
254.234
258.587
252.035
241.348
242.257
251.536
273.866
265.693
251.112
299.101
285.957
289.323
293.651
291.216
292.178
294.235
301.119
303.894
300.735
287.401
291.297
288.426
287.359
301.376
309.028
302.564
299.003
292.965
293.304
305.143
303.549
314.954
310.024
308.81
302.765
304.549
307.269
306.23
312.28
288.741
293.754
297.395
300.797
314.303
310.671
314.232
314.469
313.099
315.443
284.4
294.773
307.341
308.459
324.459
322.754
314.691
315.938
317.077
315.435
316.986
316.476
319.337
319.354
328.401
328.428
327.745
327.793
330.096
332.675
320.726
322.493
325.72
320.587
331.615
333.46
316.836
324.096
296.421
300.805
292.411
294.036
297.782
297.956
305.646
303.247
308.381
311.144
315.57
326.274
318.702
322.713
294.314
299.956
285.503
288.345
300.006
302.917
312.83
320.771
323.497
316.183
309.644
305.532
314.938
324.528
324.35
332.743
306.464
315.273
287.299
283.919
275.835
176.034
194.495
165.457
248.77
231.601
254.353
243.327
240.643
250.974
247.464
247.309
273.114
269.24
271.141
275.053
231.407
240.107
229.794
224.15
216.933
220.779
196.984
217.376
277.193
261.017
264.76
257.916
246.741
256.386
226.54
236.106
189.931
200.124
199.78
208.086
246.573
253.009
270.789
265.528
271.909
293.937
300.155
305.915
300.642
297.276
301.9
307.573
312.765
316.856
316.883
309.688
304.016
302.447
299.217
306.247
295.158
289.259
293.615
300.571
302.987
301.722
299.146
298.657
303.151
312.892
299.5
305.661
280.939
280.702
300.18
300.327
310.026
308.719
309.799
307.612
310.196
312.597
304.691
307.087
302.834
306.195
305.644
303.836
309.538
310.512
322.69
320.389
321.016
316.202
317.225
325.167
316.225
321.073
309.715
306.584
304.236
303.728
303.132
305.095
302.056
297.826
295.706
293.592
289.699
297.172
314.457
315.659
322.455
318.019
328.992
324.753
317.425
313.819
304.359
307.212
307.288
306.979
295.079
280.453
275.842
285.84
296.499
314.706
305.018
307.012
303.191
297.174
290.089
179.488
230.19
217.268
213.105
210.074
209.147
202.322
181.07
195.461
218.92
205.379
247
244.255
261.77
268.778
257.252
246.716
265.621
265.153
239.989
245.779
228.693
235.646
240.962
236.68
239.338
250.1
223.406
241.337
222.587
217.092
230.893
225.714
239.776
255.05
260.298
262.912
274.154
273.432
256.997
261.442
262.297
273.433
284.835
275.824
276.7
278.185
284.679
295.319
302.379
306.236
305.603
308.986
300.206
302.96
315.93
304.984
301.885
304.256
301.365
299.761
298.092
292.204
279.498
279.158
292.709
291.471
303.904
299.162
292.165
295.911
301.981
298.482
314.272
307.636
322.576
324.85
326.518
331.183
310.274
312.995
309.085
309.423
300.868
303.211
304.94
306.488
305.128
303.062
292.527
301.447
305.65
304.975
318.172
312.004
313.919
313.53
311.259
313.594
311.148
310.123
301.752
302.138
296.641
296.494
310.303
310.956
328.326
323.401
331.27
332.854
320.124
323.046
311.09
313.229
315.362
319.924
300.519
286.176
258.904
242.121
198.135
222.641
256.302
269.05
295.22
303.122
315.886
220.238
278.005
277.018
278.654
282.668
258.616
254.381
254.981
266.113
234.915
248.379
97.3996
98.9374
99.2221
105.625
269.213
248.024
268.792
279.116
261.508
265.715
244.985
248.909
242.916
239.121
243.117
248.276
265.837
258.149
295.693
288.333
296.167
289.7
287.258
291.344
292.031
286.416
284.483
293.216
289.283
289.008
296.721
309.188
317.203
318.665
306.641
294.838
284.54
279.366
281.044
288.042
293.469
302.512
303.441
304.252
305.91
301.448
299.863
303.814
311.297
318.092
314.474
314.095
309.256
305.958
301.872
304.535
303.184
302.342
300.275
301.874
301.976
299.465
301.943
301.163
295.413
297.976
315.823
317.423
334.215
332.602
327.09
331.706
310.293
310.809
307.547
308.368
312.139
311.508
305.635
310.38
311.507
309.021
319.53
319.549
307.745
307.831
308.118
308.767
312.677
309.149
315.127
317.787
312.639
318.53
294.962
299.553
308.11
311.195
310.067
316.095
306.238
304.539
310.18
309.599
306.054
311.594
313.762
307.377
308.298
309.576
307.826
306.107
304.959
301.542
302.565
302.553
300.2
211.547
60.4906
154.887
175.488
176.585
224.565
216.047
158.656
154.567
249.817
243.508
277.169
268.796
278.686
269.374
240.541
250.501
244.197
259.736
285.305
301.415
312.623
321.119
316.705
309.642
295.519
284.731
286.41
284.967
284.465
288.434
282.428
280.099
280.225
283.707
285.942
283.592
272.524
276.964
285.473
284.331
293.471
306.995
303.716
312.26
307.018
300.996
301.123
295.898
298.763
301.751
295.928
298.847
297.693
295.814
298.273
297.487
298.18
294.148
296.691
310.373
308.393
309.995
310.059
306.835
306.599
309.306
304.855
305.707
298.594
296.637
306.275
303.741
304.109
309.068
290.988
301.372
259.202
261.619
292.078
286.49
318.084
319.499
327.111
323.956
317.563
317.336
317.595
319.033
315.06
315.274
324.973
323.512
321.481
322.419
328.292
326.013
325.979
326.494
325.717
327.648
313.273
317.144
318.441
320.988
327.566
321.546
315.271
317.103
308.966
310.98
329.368
327.222
321.785
323.763
318.055
319.304
328.334
326.208
313.865
316.842
327.596
335.65
340.763
352.465
317.256
325.798
289.392
74.7587
74.6968
83.712
79.643
84.0324
169.533
82.4455
243.405
229.299
247.64
248.416
272.707
271.678
288.886
294.145
290.991
291.808
295.858
291.714
296.356
302.132
298.773
309.965
312.476
318.261
320.233
319.525
291.286
295.624
279.137
279.951
290.269
286.479
276.292
268.239
267.268
272.825
273.934
272.168
270.909
258.219
238.444
251.194
252.401
254.427
302.248
294.066
305.462
306.967
301.542
304.782
298.299
297.251
295.976
290.605
288.406
284.712
283.844
274.915
269.016
283.686
286.672
290.752
294.885
291.673
299.865
298.744
311.357
309.661
313.735
312.439
304.469
307.715
297.129
299.165
310.659
312.8
320.876
322.434
287.652
289.003
287.86
288.785
323.024
321.154
323.633
322.264
320.421
322.021
321.612
320.842
320.569
321.162
322.953
322.491
325.677
327.231
317.807
319.177
315.993
318.261
316.406
317.838
310.999
312.51
318.476
317.129
318.698
320.736
320.33
319.764
320.448
322.367
323.563
323.75
325.562
325.164
325.15
324.487
327.9
317.132
305.808
298.808
301.63
314.465
335.479
338.078
315.912
72.9578
248.612
261.967
261.805
265.891
255.239
244.559
247.749
263.975
213.465
219.077
230.611
215.551
247.589
273.018
279.976
281.835
292.917
292.666
287.376
292.931
275.621
273.276
277.256
290.164
309.679
326.408
337.556
345.114
340.62
344.264
305.399
310.215
305.894
297.493
285.835
280.698
279.854
278.427
275.172
272.728
259.451
259.546
262.116
265.8
275.241
272.952
269.602
275.537
261.528
257.87
275.301
275.007
280.286
280.232
280.247
277.08
276.33
271.777
266.292
274.291
282.892
290.517
296.623
295.21
303.278
306.529
299.912
299.832
306.699
309.611
298.566
302.836
289.741
286.535
293.265
298.535
301.832
304.569
309.864
304.648
295.8
296.987
294.41
297.469
312.064
309.275
317.459
317.863
320.534
321.029
315.889
317.578
313.209
314.634
309.133
311.381
311.745
311.225
308.658
309.015
313.76
315.256
312.657
312.564
311.405
311.892
311.335
313.613
314.965
313.942
315.269
316.767
319.348
319.447
321.06
322.019
318.101
319.36
311.876
313.76
300.481
290.509
279.957
284.02
299.683
305.426
323.938
187.84
180.821
213.232
239.014
261.984
281.062
281.025
273.055
281.666
282.34
273.655
273.535
244.136
221.907
235.208
235.464
218.949
233.468
249.921
215.825
232.264
250.898
256.118
286.369
297.551
312.024
331.762
334.568
356.252
346.949
353.726
320.538
315.263
305.102
298.15
300.393
298.034
291.292
286.746
282.794
285.301
282.572
279.144
270.426
259.445
244.854
232.373
209.277
222.158
246.731
257.254
269.456
277.533
284.569
288.979
292.943
293.555
294.016
294.701
292.24
290.05
291.025
294.119
297.339
300.791
294.329
302.135
297.478
297.132
290.686
294.64
301.405
304.321
298.151
293.989
284.294
295.025
282.552
281.108
301.823
295.257
303.51
302.362
302.351
304.466
304.989
304.959
307.766
310.418
310.95
312.939
310.489
311.431
308.905
310.426
305.393
304.046
312.366
311.028
314.525
316.715
305.932
307.961
311.123
310.957
308.55
308.636
308.877
309.133
316.261
316.729
312.265
313.632
315.04
315.93
314.963
315.887
317.514
318.21
315.93
317.019
311.13
308.714
293.577
300.665
286.52
290.979
315.863
34.5186
15.844
170.197
215.563
238.47
240.566
257.29
261.636
274.623
286.955
290.827
296.053
293.099
287.518
288.988
286.976
267.948
198.996
142.37
181.753
199.261
247.103
241.5
239.474
209.711
228.598
260.948
256.323
299.998
289.738
305.906
305.973
298.746
269.219
256.112
250.039
250.486
248.139
244.305
236.88
237.679
242.981
245.236
250.503
248.62
254.203
259.786
272.055
275.22
289.864
301.165
309.145
317.776
315.836
315.677
306.617
300.567
302.098
305.449
303.967
300.159
296.678
293.53
291.377
297.447
284.387
287.733
296.986
292.57
300.97
301.967
304.797
301.352
325.696
323.173
316.217
324.516
314.73
312.134
307.49
308.73
298.359
300.122
297.306
301.232
294.412
293.813
296.632
302.742
292.623
294.988
295.622
293.551
302.544
299.811
313.109
312.018
306.96
309.223
302.678
304.428
311.813
310.251
314.116
317.262
305.483
304.818
305.454
303.58
311.626
315.179
309.499
310.333
307.752
309.53
307.305
307.63
309.651
309.328
316.495
316.042
320.715
319.324
310.896
314.384
310.511
310.718
312.205
7.36138
12.5777
18.9805
5.38866
17.4692
28.1807
52.0845
39.6812
145.78
230.139
259.273
273.216
286.669
286.929
289.99
274.178
275.957
291.726
276.907
279.267
269.851
221.299
124.739
46.272
84.6164
70.1537
52.8043
55.8921
62.1833
185.169
227.233
258.102
197.249
282.81
263.16
264.302
279.731
229.775
230.626
225.014
221.596
233.32
245.032
259.818
265.649
275.039
277.968
281.049
273.317
274.062
278.517
279.04
292.861
290.028
295.06
298.684
293.156
289.388
291.866
291.08
289.731
289.763
288.49
286.538
288.698
297.166
291.548
306.062
306.371
299.78
301.96
306.296
301.771
307.704
315.595
303.403
309.453
314.574
308.869
310.526
311.161
308.702
309.964
301.19
304.415
304.083
303.388
297.439
302.791
308.482
309.125
306.043
305.966
299.265
296.429
305.051
307.412
306.638
308.332
305.221
300.889
317.023
320.607
305.979
311.323
305.648
302.089
302.815
303.595
293.255
296.532
309.184
309.506
305.783
306.602
308.494
308.302
308.433
307.938
310.733
309.501
319.444
321.077
311.141
311.146
316.171
315.355
315.652
5.94642
2.21159
0.906749
2.21525
1.32291
1.02021
1.6669
1.4787
8.55193
6.82342
3.64201
6.39747
0
0
41.7794
39.4923
37.58
194.622
101.761
47.7156
50.6066
47.4372
47.7075
53.8996
52.8632
68.6927
70.5481
75.9827
83.7362
85.0019
85.3842
173.979
78.1872
69.1629
169.848
186.655
224.552
245.051
230.978
246.717
248.267
259.597
266.628
269.892
270.389
269.082
268.379
265.78
253.499
235.974
225.8
212.006
235.049
247.897
260.166
264.509
262.556
258.863
260.768
269.764
273.596
273.798
274.527
274.479
271.026
289.637
283.905
290.764
295.779
297.488
298.122
296.28
296.141
285.129
286.255
318.725
320.417
322.629
324.352
299.902
300.792
300.829
301.969
300.057
299.491
304.74
297.621
318.625
319.97
326.656
331.03
317.063
316.27
315.935
317.182
294.894
298.714
301.719
302.671
306.357
306.382
284.976
292.271
301.35
299.909
315.509
311.498
310.004
312.582
304.508
306.496
299.47
300.884
309.259
309.1
309.691
310.971
306.124
306.752
301.658
301.512
299.186
302.28
308.579
307.597
301.761
302.017
303.381
2.80357
0.797332
1.6975
2.16523
10.2166
10.8888
11.2243
16.8911
15.9624
18.4334
20.2804
18.1218
38.3269
18.5379
34.7107
48.063
42.6901
42.035
53.6923
43.5954
188.906
51.1809
58.2741
61.9377
55.9177
63.1895
60.5467
65.8063
66.5348
67.9974
67.512
65.8274
60.2702
64.683
71.1535
71.1562
76.537
247.213
229.124
246.248
249.99
251.885
257.487
254.595
254.152
253.794
254.903
257.282
258.782
260.026
260.274
257.061
261.848
252.385
254.137
254.544
255.257
262.496
263.046
266.381
272.287
277.504
281.611
282.067
283.145
269.262
276.91
251.998
256.901
272.171
272.172
276.81
275.738
276.46
273.262
274.962
285.149
299.62
303.863
299.045
292.278
291.73
290.608
298.797
297.297
298.099
290.236
292.989
306.27
291.384
301.522
300.606
291.159
304.764
305.782
307.528
307.386
299.373
300.885
302.21
304.029
300.615
302.788
300.848
299.15
307.287
308.482
299.195
302.813
299.688
299.797
300.318
298.544
304.361
306.472
306.008
307.101
309.153
310.329
303.263
303.806
295.757
295.657
307.707
308.082
307.538
308.966
297.924
1.32988
0.689599
0.867973
1.07885
1.25083
0.899627
4.78153
5.66156
5.12395
4.57004
4.89338
4.99996
12.0468
6.65707
16.1133
7.23195
4.40595
10.3516
222.71
254.577
289.43
91.6426
50.0538
42.9121
47.8595
52.9235
51.2913
48.3246
49.3473
43.7783
42.5008
40.9569
42.2982
40.4896
51.3121
243.887
241.629
246.165
251.314
246.338
244.752
241.927
248.543
258.968
265.749
267.945
268.998
262.358
257.917
245.611
239.689
237.05
249.07
257.56
264.422
272.212
273.658
276.167
276.336
274.067
274.379
274.297
278.464
278.808
280.811
278.747
283.228
276.694
279.707
258.535
263.63
263.64
261.291
270.053
276.426
240.948
249.457
269.828
269.903
305.461
297.749
298.03
299.597
289.788
293.172
285.096
276.804
276.012
291.692
293.352
295.978
308.684
300.71
296.485
302.704
298.6
296.564
305.033
305.673
300.497
302.348
303.658
304.732
305.362
303.959
301.214
301.237
313.507
316.06
309.374
309.575
305.793
305.096
301.577
304.917
305.552
306.449
306.779
307.758
310.628
309.417
309.85
309.383
303.352
307.374
303.872
306.102
301.91
2.84444
2.63543
0.904795
0.885514
0.877982
0.954122
4.41075
4.62948
5.18143
5.4492
5.76566
5.18703
5.73693
4.95854
12.502
18.9906
15.9701
21.2398
27.5711
27.5496
46.4749
55.3809
43.5073
53.3907
39.6288
45.4367
41.5877
34.9395
42.9314
41.8818
223.852
223.942
233.389
240.098
241.521
237.279
227.836
212.6
214.282
222.407
228.621
238.217
242.774
246.295
255.37
264.813
276.757
264.874
259.295
245.647
230.459
232.38
239.139
255.466
266.697
276.807
283.593
279.213
277.756
273.146
270.077
267.318
269.605
270.853
273.569
275.262
277.029
284.468
284.025
287.934
286.378
285.695
287.186
276.041
281.542
290.935
289.391
285.459
289.497
291.508
293.592
288.447
291.585
286.908
288.11
285.323
277.912
265.828
275.282
298.791
300.468
305.062
302.4
291.908
296.876
298.272
296.837
289.956
291
298.984
300.258
296.987
298.635
298.095
295.124
301.158
302.269
295.047
302.504
300.402
296.859
304.506
304.224
298.575
301.074
301.192
302.115
302.753
303.477
305.153
304.589
304.472
304.485
302.844
306.207
302.802
304.207
304.343
2.08985
3.1236
3.15088
3.33216
3.30401
3.6893
3.4853
3.68018
4.59172
4.51732
4.79903
4.19116
4.373
1.60779
3.25338
2.99205
13.6432
4.41817
15.3278
20.9995
18.316
38.0239
36.4603
15.264
36.2633
18.2933
37.1387
19.8874
52.6983
249.065
263.66
260.001
260.996
249.161
244.547
236.612
230.805
214.083
194.893
200.875
201.941
212.93
223.151
227.721
232.198
212.488
230.042
241.99
244.928
257.29
251.735
264.178
267.354
274.406
281.059
269.449
271.654
268.347
267.884
273.391
275.98
273.374
272.868
270.429
271.994
270.491
269.908
279.633
280.115
284.239
284.91
281.603
285.23
277.269
278.342
281.055
282.495
282.496
284.904
286.815
289.694
289.341
291.67
289.311
288.758
290.247
288.649
267.039
275.854
264.665
270.561
289.014
285.403
292.265
292.606