# vtk DataFile Version 3.0
vtk output
ASCII
DATASET POLYDATA
POINTS 24578 float
-151.53 81.83 75.23
-146.76 79.98 77.9
-147.26 82.51 76.57
-151.22 79.35 76.36
-146.3 77.32 78.47
-150.76 76.75 77.01
-146.01 74.82 79.56
-150.4 74.19 77.98
-145.43 72.07 79.86
-149.95 71.56 78.66
-145.02 69.6 80.58
-149.55 69.11 79.46
-144.64 67.21 81.53
-149.14 66.64 80.2
-144.27 64.77 82.34
-148.68 64.12 80.8
-144.06 62.18 83.1
-148.26 61.63 81.51
-143.83 59.57 83.96
-148.2 59.14 82.73
-143.54 56.98 84.63
-148.02 56.58 83.6
-143.3 54.28 84.95
-147.52 53.77 83.62
-142.71 51.53 84.98
-147.03 50.98 83.68
-142.34 49.05 85.71
-146.66 48.52 84.06
-142.24 46.57 86.6
-146.26 46.05 84.34
-145.97 43.63 84.94
-141.82 44.09 87.11
-141.56 41.44 87.04
-145.67 41.21 85.5
-140.98 38.76 87.5
-145.29 38.66 85.7
-140.75 36.16 87.85
-144.89 36.1 85.85
-144.62 33.53 86.3
-140.46 33.57 88.45
-140.13 30.94 88.56
-144.22 30.94 86.41
-143.81 28.2 86.49
-139.84 28.2 88.9
-143.44 25.45 86.68
-139.6 25.51 89.44
-143.18 22.67 87.12
-139.22 22.78 89.44
-142.9 19.88 87.51
-138.79 20.04 89.71
-142.6 17.15 87.83
-138.39 17.32 89.75
-137.91 14.61 89.73
-142.25 14.42 88.03
-141.99 11.68 88.46
-137.6 11.89 89.94
-141.61 8.95 88.57
-137.22 9.16 90.05
-141.13 6.27 88.48
-136.86 6.45 90.3
-140.68 3.58 88.47
-136.37 3.76 90.16
-140.25 0.89 88.51
-135.88 1.07 90.03
-139.71 -1.79 88.26
-135.64 -1.76 90.02
-135.64 -4.55 89.75
-140 -4.44 88.09
-135.69 -7.09 89
-140.34 -7.12 88.03
-135.79 -9.62 88.23
-140.37 -9.69 87.25
-135.84 -12.19 87.54
-140.43 -12.27 86.54
-135.99 -14.75 87
-140.5 -14.79 85.8
-136.21 -17.35 86.64
-140.62 -17.33 85.19
-136.42 -19.93 86.21
-140.85 -19.94 84.82
-136.49 -22.42 85.34
-140.79 -22.34 83.7
-136.45 -24.91 84.43
-140.78 -24.79 82.73
-136.55 -27.44 83.74
-140.84 -27.3 81.99
-136.57 -29.97 82.98
-140.97 -29.86 81.42
-136.73 -32.54 82.43
-141.02 -32.36 80.63
-136.76 -35.12 81.64
-141.09 -34.97 79.94
-141.32 -37.69 79.69
-136.83 -37.72 80.96
-141.45 -40.33 79.13
-136.9 -40.34 80.32
-137.11 -43 79.41
-141.48 -42.91 78.35
-141.57 -45.38 77.61
-137.04 -45.54 78.64
-141.59 -47.8 76.7
-137.03 -47.91 77.56
-141.86 -50.43 76.49
-137.15 -50.39 76.9
-141.9 -52.84 75.63
-137.27 -52.84 76.11
-141.91 -55.11 74.4
-137.53 -55.19 75.26
-137.48 -57.49 74.21
-141.9 -57.35 73.07
-142.03 -59.74 72.14
-137.7 -59.92 73.43
-142.25 -62.22 71.44
-137.97 -62.48 72.92
-142.57 -64.67 70.67
-138.15 -65.14 72.4
-142.87 -67.1 69.86
-138.34 -67.41 71.12
-143.16 -69.56 69.09
-138.58 -69.8 70.17
-143.42 -71.97 68.22
-138.72 -72 68.84
-143.42 -74.03 66.78
-138.71 -74.17 67.59
-143.52 -76.26 65.69
-138.9 -76.5 66.65
-143.64 -78.59 64.8
-139.03 -78.91 65.88
-143.64 -80.66 63.43
-139.36 -81.09 64.3
-142.41 80.53 78.87
-142.88 83.09 77.59
-141.83 77.87 79.86
-141.49 75.33 80.8
-140.97 72.61 81.19
-140.47 70.13 81.77
-140.01 67.69 82.47
-139.94 65.21 83.59
-139.84 62.72 84.64
-139.44 60.04 85.13
-139.12 57.42 85.86
-138.88 54.8 86.42
-138.56 52.14 86.78
-138.19 49.56 87.25
-137.83 46.99 87.76
-137.58 44.31 88.01
-137.31 41.63 88.23
-137.03 38.95 89.21
-136.57 36.22 89.77
-136.22 33.57 90.06
-135.88 30.91 90.36
-135.74 28.24 91.1
-135.47 25.56 91.56
-134.94 22.88 91.41
-134.47 20.19 91.43
-134.08 17.49 91.57
-133.61 14.8 91.52
-133.09 12.1 91.2
-132.71 9.37 91.23
-132.3 6.67 91.32
-131.94 3.96 91.53
-131.76 1.11 91.67
-131.5 -1.71 91.62
-131.31 -4.41 90.89
-131.1 -7.09 90.13
-131.35 -9.7 89.79
-131.55 -12.29 89.33
-131.63 -14.81 88.62
-131.74 -17.34 87.96
-131.85 -19.85 87.19
-132.06 -22.42 86.66
-132.19 -25.02 86.17
-132.25 -27.57 85.48
-132.26 -30.09 84.65
-132.44 -32.72 84.26
-132.56 -35.36 83.72
-132.63 -37.97 83.04
-132.75 -40.58 81.94
-132.83 -43.16 80.72
-132.77 -45.71 79.94
-132.75 -48.3 79.25
-132.77 -50.64 78.12
-132.8 -52.99 77
-132.95 -55.32 76.2
-133.13 -57.69 75.53
-133.33 -60.11 74.69
-133.5 -62.48 73.72
-133.64 -65.09 73
-133.72 -67.59 72.04
-133.86 -69.81 70.74
-134.01 -72.03 69.43
-134.18 -74.44 68.63
-134.35 -76.86 67.84
-134.77 -79.33 66.76
-135.07 -81.54 65.2
-138.04 81.11 79.93
-138.51 83.66 78.64
-137.48 78.45 80.95
-136.81 75.7 81.58
-136.53 73.2 82.68
-136.2 70.85 83.66
-136.01 68.35 84.53
-135.78 65.76 85.17
-135.49 63.19 85.82
-135.19 60.56 86.38
-134.98 57.99 87.45
-134.76 55.37 88.25
-134.53 52.77 88.88
-134 50.11 89.1
-133.65 47.3 89.03
-133.3 44.56 89.42
-133.29 41.92 90.17
-132.89 39.2 91
-132.5 36.43 91.58
-132.05 33.68 92.21
-131.7 30.98 92.36
-131.44 28.31 92.66
-131.04 25.67 93.02
-130.62 23.02 93.01
-130.15 20.36 93.11
-129.82 17.66 93.35
-129.27 14.97 93.05
-128.74 12.27 92.73
-128.4 9.55 92.87
-127.96 6.85 92.86
-127.84 4 93.22
-127.59 1.17 93.17
-127.27 -1.64 92.97
-127.25 -4.36 92.57
-127.15 -7.08 92.07
-127.17 -9.83 91.83
-127.29 -12.38 91.16
-127.29 -14.86 90.23
-127.44 -17.42 89.6
-127.57 -19.97 88.96
-127.76 -22.53 88.35
-127.82 -25.1 87.72
-127.85 -27.64 86.95
-127.95 -30.27 86.46
-128.2 -32.95 86.24
-128.25 -35.54 85.49
-128.5 -38.26 84.8
-128.59 -40.83 83.55
-128.62 -43.36 82.3
-128.5 -45.86 81.36
-128.57 -48.51 80.64
-128.51 -50.96 79.6
-128.63 -53.39 78.68
-128.82 -55.89 78.24
-129.15 -58.39 77.85
-129.06 -60.46 76.29
-128.99 -62.4 74.44
-128.98 -64.79 73.19
-129.01 -67.15 71.96
-128.97 -69.58 70.84
-129.28 -72.05 69.98
-129.48 -74.55 69.36
-130.01 -77.21 68.65
-130.42 -79.71 67.63
-130.79 -82.03 66.21
-133.82 81.84 81.46
-134.36 84.47 80.38
-133.19 79.09 82.22
-132.49 76.28 82.7
-131.95 73.65 83.71
-131.93 71.29 85
-131.87 68.9 86.17
-131.5 66.27 86.57
-131.13 63.64 86.94
-130.87 61.02 87.58
-130.68 58.45 88.47
-130.46 55.86 89.34
-130.18 53.24 90.02
-129.88 50.44 90.31
-129.64 47.69 90.79
-129.42 44.94 91.36
-129.23 42.2 92.03
-128.71 39.37 92.41
-128.45 36.65 93.48
-128.03 33.86 94.03
-127.47 31.03 94.24
-127.19 28.41 94.71
-126.88 25.78 95.12
-126.32 23.16 94.88
-125.8 20.53 94.74
-125.36 17.84 94.64
-124.86 15.16 94.43
-124.49 12.44 94.52
-124.2 9.71 94.8
-123.95 6.88 94.78
-123.68 4.05 94.73
-123.4 1.23 94.62
-123.18 -1.6 94.69
-123.37 -4.41 94.84
-123.31 -7.12 94.32
-123.16 -9.79 93.63
-122.95 -12.42 92.76
-123.09 -14.99 92.12
-123.27 -17.57 91.56
-123.4 -20.13 90.9
-123.5 -22.66 90.14
-123.53 -25.22 89.42
-123.57 -27.78 88.7
-123.68 -30.42 88.22
-123.74 -33.02 87.62
-123.94 -35.69 86.77
-124.14 -38.36 85.91
-124.27 -40.96 84.88
-124.51 -43.67 84.17
-124.44 -46.18 83.04
-124.36 -48.68 81.9
-124.32 -51.14 80.87
-124.34 -53.66 80.01
-124.65 -56.22 79.72
-124.85 -58.64 79.12
-124.76 -60.62 77.46
-124.57 -62.46 75.52
-124.49 -64.69 73.94
-124.51 -67.1 72.74
-124.57 -69.65 71.8
-124.65 -72.26 70.99
-125.14 -74.86 70.13
-125.57 -77.36 69.04
-126.01 -79.84 67.96
-126.39 -82.16 66.58
-129.58 82.52 82.46
-130.23 85.32 82
-128.9 79.77 83.09
-128.4 77.11 83.84
-127.98 74.41 84.96
-127.56 71.77 85.9
-127.33 69.24 86.57
-127.15 66.76 87.43
-126.86 64.14 88.01
-126.52 61.49 88.81
-126.36 58.96 89.84
-126.14 56.38 90.8
-125.97 53.53 91.15
-125.51 50.64 91.5
-125.42 47.93 92.31
-125.22 45.19 93.14
-125.05 42.45 93.81
-124.64 39.66 94.38
-124.31 36.88 95.2
-123.77 34.05 95.42
-123.26 31.23 95.69
-122.78 28.52 96.11
-122.44 25.87 96.38
-121.98 23.27 96.26
-121.42 20.65 96.06
-121.04 17.96 96.08
-120.68 15.29 96.36
-120.38 12.57 96.56
-120.17 9.75 96.72
-119.91 6.93 96.66
-119.55 4.12 96.37
-119.27 1.3 96.28
-119.07 -1.54 96.32
-119.25 -4.36 96.51
-119.22 -7.1 96.08
-119.04 -9.77 95.31
-119 -12.5 94.8
-118.91 -15.21 94.19
-119.08 -17.79 93.59
-119.2 -20.38 92.98
-119.3 -22.91 92.18
-119.31 -25.47 91.43
-119.31 -28 90.63
-119.33 -30.55 89.87
-119.45 -33.15 88.84
-119.6 -35.8 87.91
-119.83 -38.5 87.17
-120.05 -41.2 86.43
-120.26 -43.87 85.57
-120.32 -46.42 84.63
-120.24 -48.94 83.59
-120.24 -51.46 82.7
-120.29 -53.99 81.83
-120.1 -56.26 80.6
-120.22 -58.48 79.45
-120.33 -60.66 78.2
-120.24 -62.81 76.84
-120.26 -65.2 75.6
-120.18 -67.48 74.2
-120.23 -70.02 73.25
-120.52 -72.67 72.16
-120.81 -75.19 70.96
-121.18 -77.58 69.65
-121.52 -79.9 68.24
-121.92 -82.27 66.97
-125.25 83.17 83.41
-125.88 85.88 82.84
-124.6 80.45 83.94
-124.22 77.72 84.75
-123.94 75.09 85.93
-123.46 72.43 86.81
-122.93 69.71 87.46
-122.73 67.14 88.15
-122.59 64.64 89.06
-122.25 62 89.9
-121.95 59.4 90.9
-121.96 56.7 91.92
-121.73 53.8 92.2
-121.47 50.99 93.04
-121.27 48.22 94.07
-121.07 45.45 94.8
-120.88 42.69 95.58
-120.53 39.9 96.26
-120.06 37.06 96.59
-119.52 34.23 96.77
-119.19 31.45 97.53
-118.64 28.71 97.7
-118.07 25.97 97.81
-117.65 23.36 97.86
-117.2 20.75 97.82
-116.76 18.09 97.81
-116.45 15.42 98.16
-116.25 12.62 98.27
-115.94 9.82 98.09
-115.72 7.01 98.16
-115.43 4.19 98.08
-115.24 1.34 98.13
-115.02 -1.5 98.11
-115.03 -4.27 97.86
-115.05 -7.04 97.62
-115.01 -9.78 97.12
-114.91 -12.5 96.46
-114.83 -15.21 95.87
-114.79 -17.94 95.36
-114.95 -20.55 94.79
-115.09 -23.14 94.17
-115.09 -25.69 93.41
-115.09 -28.25 92.66
-115.19 -30.82 91.55
-115.34 -33.43 90.58
-115.56 -36.16 89.86
-115.65 -38.76 88.81
-115.73 -41.32 87.6
-115.89 -43.96 86.62
-115.94 -46.5 85.75
-115.97 -49.02 84.82
-116.06 -51.62 84.1
-116.16 -54.22 83.41
-116 -56.46 81.98
-115.78 -58.59 80.34
-115.73 -60.7 78.9
-115.82 -63.01 77.89
-115.91 -65.56 77.02
-115.85 -67.86 75.66
-116.07 -70.39 74.35
-116.45 -73.24 73.66
-116.73 -75.78 72.45
-116.87 -78.01 70.66
-117.13 -80.1 68.85
-117.46 -82.37 67.36
-120.93 83.58 83.84
-121.35 86.18 83.25
-120.43 80.92 84.76
-120.24 78.29 85.68
-119.85 75.73 86.84
-119.39 73.08 87.68
-118.97 70.39 88.56
-118.52 67.71 89.38
-118.27 65.1 89.93
-117.89 62.43 90.71
-117.77 59.68 91.68
-117.62 56.89 92.64
-117.53 54.11 93.38
-117.25 51.28 94.27
-116.99 48.44 95.07
-116.61 45.56 95.63
-116.37 42.76 96.18
-116.01 39.98 96.85
-115.62 37.17 97.41
-115.23 34.39 98.02
-114.97 31.62 98.96
-114.53 28.91 99.33
-113.9 26.15 99.26
-113.4 23.47 99.53
-113.04 20.85 99.72
-112.61 18.2 99.71
-112.34 15.45 99.77
-112.11 12.66 99.75
-111.7 9.9 99.43
-111.54 7.08 99.65
-111.31 4.26 99.65
-111.1 1.42 99.6
-110.91 -1.42 99.76
-110.84 -4.17 99.3
-110.76 -6.92 98.71
-110.8 -9.71 98.47
-110.76 -12.46 97.96
-110.67 -15.19 97.39
-110.65 -17.93 96.92
-110.56 -20.62 96.27
-110.66 -23.19 95.59
[...]
CELL_DATA 49152
SCALARS Temperature float 1
LOOKUP_TABLE default
5.31518e-05
4.89621e-05
0.000104815
3.61602e-05
2.85932e-05
2.16205e-05
4.43218e-05
4.22279e-05
4.13938e-05
0.000117106
0.000108516
0.000100567
9.38242e-05
7.0257e-05
1.53764e-05
1.95423e-05
2.16189e-05
7.22061e-05
0.00010144
0.000111594
0.00011233
3.24974e-05
4.97045e-06
4.30122e-06
6.05051e-06
6.33643e-06
8.47556e-06
7.30284e-06
8.09897e-06
8.51496e-06
4.93513e-06
5.70626e-06
3.3351e-06
1.72565e-06
4.54801e-06
2.33689e-06
3.05237e-06
5.96942e-06
2.72606e-05
1.68772e-05
1.82996e-05
2.99803e-05
1.95964e-05
3.45739e-05
3.79162e-05
4.16304e-05
3.45868e-05
0.000120703
7.60378e-05
0.000146728
1.65757e-06
1.57763e-05
2.56137e-05
2.51219e-05
5.57136e-05
5.85557e-05
3.3135e-05
0.000122169
0.000317413
0.00170331
0.0002659
0.000305112
0.00042392
0.000385949
0.000430453
0.000370362
0.00543367
0.00607808
0.00932396
0.00973333
0.00969427
0.00998386
0.0100862
0.0095782
0.00965881
0.00804003
0.00852723
0.00908845
0.0739611
0.0745177
0.0676236
0.0688871
0.0556838
0.0621452
0.0670963
0.0405788
0.0250815
0.0799849
0.0831479
0.0288925
0.0184317
0.0257081
0.0272151
0.0327296
0.125147
0.118294
0.130887
0.127095
0.317989
0.39331
0.759529
0.447961
1.33723
1.15432
1.81443
1.53078
1.88849
1.67512
1.66649
1.65252
1.53965
1.65955
0.854696
0.442686
0.344401
0.408808
1.13214
2.21495
2.36306
4.66107
4.71175
3.82703
2.78706
2.94314
2.89595
3.14083
2.09657
2.363
4.3521e-05
4.61547e-05
0.000128502
0.00012618
2.86163e-05
3.93349e-05
0.000145421
2.61355e-05
2.21226e-05
2.45156e-05
2.14383e-05
2.63971e-05
2.59478e-05
0.000103917
7.60532e-05
1.65169e-05
6.6441e-05
0.000107456
0.000109934
0.000103294
5.58424e-06
1.70907e-05
1.2416e-05
6.48118e-06
1.33576e-05
1.15657e-05
1.16775e-05
2.07417e-05
1.97503e-05
2.13675e-05
3.5488e-06
7.63868e-06
3.31738e-06
3.75187e-06
4.77043e-06
5.30022e-06
5.69843e-06
1.54894e-06
1.71659e-06
1.64151e-06
2.06134e-06
5.85467e-06
5.30898e-06
4.84002e-06
0.000172641
0.000134867
3.94011e-05
9.8916e-05
2.17778e-05
2.51035e-05
4.26996e-05
3.50384e-05
6.56183e-05
5.79449e-05
2.90914e-05
8.65022e-05
8.47965e-05
8.54966e-05
0.000112183
3.42141e-05
0.000136612
3.33342e-05
0.000264475
0.000236064
0.00370123
0.00419558
0.00460332
0.00491319
0.00451944
0.00511231
0.00371802
0.00433132
0.00507382
0.00660088
0.00780189
0.0100261
0.010379
0.0121763
0.0124695
0.0733744
0.0124736
0.0902228
0.070254
0.0706007
0.0914789
0.0692199
0.0163826
0.0563288
0.06153
0.124648
0.12223
0.127726
0.173114
0.115026
0.345745
0.139335
0.149057
0.152107
0.205174
0.210354
0.232163
0.535859
0.256048
0.55998
0.498459
0.381735
1.84153
1.36747
2.05991
2.658
2.51905
3.64664
3.95478
4.7273
4.34816
3.48927
3.26686
5.0662
4.95454
4.99102
4.82553
3.71429
2.90828
3.31163
3.10707
2.73501
2.04688
1.90633
3.46928e-05
3.6112e-05
0.000121261
0.000120156
0.000157067
0.000154053
0.000144414
4.68213e-05
2.30669e-05
2.58364e-05
2.60672e-05
2.4234e-05
2.33429e-05
2.47938e-05
2.75848e-05
9.50072e-05
0.000129836
0.000119228
8.37304e-05
2.07349e-05
2.03334e-05
1.90559e-05
1.7709e-05
1.66888e-05
1.31506e-05
1.32976e-05
6.23864e-06
9.34066e-06
4.00644e-06
4.24746e-06
1.06263e-05
4.09945e-06
4.75606e-06
1.03964e-05
7.67277e-06
8.14165e-06
3.80816e-06
8.4034e-06
4.70958e-06
2.86509e-06
5.68076e-06
9.15746e-07
2.68739e-06
2.79876e-06
1.6019e-05
0.000115768
1.55627e-05
1.3322e-05
1.53499e-05
1.71261e-05
8.6432e-05
7.27074e-05
3.39423e-05
2.8031e-05
2.43275e-05
2.26214e-05
2.33673e-05
2.30467e-05
2.61068e-05
2.67222e-05
2.45715e-05
8.68258e-05
0.00113544
0.00301678
0.00451404
0.00430949
0.00454571
0.00263064
0.00404105
0.00378522
0.0167819
0.00350228
0.0566246
0.00915051
0.0132591
0.00861359
0.0148561
0.00660708
0.00828409
0.00887717
0.00872341
0.010813
0.0532997
0.016227
0.0113994
0.0672831
0.0177864
0.0172152
0.107087
0.0501786
0.0710878
0.103907
0.416484
0.349321
0.443737
0.357855
0.171801
0.174138
0.143997
0.145024
0.490526
0.558481
0.459584
0.620426
0.467925
0.377362
0.576373
0.521308
13.0424
4.27205
3.99946
3.63883
5.07114
6.38428
6.30669
6.71349
6.61872
6.26385
6.3259
5.7666
5.94397
5.94598
5.5975
5.33777
3.53033
3.55414
1.17427
0.885316
3.89565e-05
3.94748e-05
0.0001106
7.93421e-05
0.000165487
0.000160732
0.000127354
0.000121697
9.613e-05
6.05724e-05
8.40058e-05
2.75614e-05
8.13002e-05
0.000105043
0.000134755
0.000140487
0.000142159
0.000132258
0.000117274
0.00012501
0.000124637
0.00011686
0.000111421
0.000102366
3.90051e-05
3.22475e-05
3.26544e-05
5.57767e-06
5.59869e-06
1.04378e-05
1.22291e-05
1.09629e-05
1.07609e-05
4.14051e-06
3.91265e-06
1.13213e-05
8.24278e-06
6.98211e-06
1.49297e-06
1.12837e-06
3.48046e-06
4.65217e-06
3.93478e-06
2.02097e-05
5.31903e-05
1.59584e-05
3.61957e-05
9.72135e-06
2.67152e-05
1.77463e-05
3.99081e-05
4.10332e-05
3.4163e-05
2.67019e-05
1.98795e-05
1.8278e-05
1.65349e-05
1.60911e-05
2.49338e-05
9.90492e-05
9.71394e-05
0.000122871
0.000225444
0.00042149
0.000450095
0.0027473
0.0425957
0.00981361
0.0199183
0.00464418
0.0747017
0.0288261
0.0131638
0.0766162
0.0301124
0.0582359
0.0656627
0.0635296
0.078289
0.0438496
0.0645744
0.0519271
0.0494995
0.0560119
0.0151452
0.0163328
0.0140203
0.0117423
0.0605817
0.0628596
0.489814
0.603226
0.70468
0.609328
0.141991
0.479941
0.488829
0.350952
0.402552
0.0928813
0.345825
0.380261
0.196982
0.178041
0.188373
0.223681
0.65868
1.48181
20.0176
18.0687
20.421
14.6741
5.78965
6.20146
5.84879
5.82898
5.53602
5.66662
5.56838
5.7333
5.7103
5.89366
6.09391
182.767
174.839
194.657
223.915
217.161
0.000328462
0.000203137
0.000367312
0.000319015
0.000287843
0.00017592
8.8261e-05
6.68666e-05
7.79837e-05
0.00010846
0.000176738
0.000183781
0.000198446
0.000185436
0.000179023
0.000166893
0.000149792
0.000137998
0.000116315
9.3657e-05
8.89424e-05
6.1766e-05
9.28582e-05
0.000108956
3.929e-05
3.77041e-05
3.73731e-05
2.03643e-05
1.73341e-05
1.57642e-05
1.12952e-05
1.10515e-05
4.67264e-06
8.95398e-06
1.13534e-05
9.98279e-06
5.86384e-06
2.16728e-05
2.58918e-05
4.14424e-06
1.45762e-05
4.51463e-06
4.31557e-06
8.07099e-06
3.48677e-05
4.78249e-05
3.66451e-05
3.64509e-05
2.26459e-05
2.89559e-05
3.58946e-05
1.02232e-05
2.83791e-05
0.000184737
0.000172526
0.000172698
0.000220175
0.000252109
0.000298079
9.32052e-05
0.00019348
0.000254852
0.000272989
0.000572453
0.000285599
0.000289797
0.00153718
0.00786588
0.0646253
0.0549415
0.00865965
0.0807452
0.0666464
0.0619456
0.0574744
0.048842
0.0622764
0.0702374
0.0846245
0.0810453
0.0757253
0.060926
0.0679599
0.0198126
0.00729577
0.0117383
0.0704549
0.0154456
0.0514939
0.0400078
0.022379
0.221754
0.556854
0.124786
0.106928
0.113959
0.18162
0.389521
0.358202
0.41204
0.239546
0.280619
0.244724
0.245047
0.249468
3.73692
3.50814
5.70847
11.912
20.2624
16.9783
21.9138
16.0283
16.8182
18.2103
5.70974
5.8891
14.5109
5.61375
17.9752
12.9933
21.2981
22.337
22.6668
22.8122
232.991
231.391
207.77
0.000488738
0.000469573
0.000456405
0.000416016
0.000365593
0.000318167
0.000177202
0.000135968
0.000163769
0.000160783
0.000190479
0.000185675
0.000188391
0.000185199
0.0001861
0.000172703
0.000162732
0.000154815
0.000146018
0.000145571
0.000143124
0.000130545
0.00013236
0.000123637
4.74625e-05
1.98763e-05
1.74634e-05
2.75835e-05
1.98729e-05
1.64212e-05
1.11619e-05
1.59453e-05
7.59388e-06
9.49224e-06
9.8431e-06
2.70172e-05
2.24941e-05
2.77705e-05
3.15118e-05
1.06488e-05
4.56473e-06
1.3992e-06
1.50098e-06
1.15785e-05
1.49576e-05
2.46069e-05
2.08992e-05
2.32023e-05
1.25981e-05
1.83805e-05
2.2111e-05
2.74907e-05
1.61102e-05
1.20704e-05
4.1458e-06
9.47297e-06
1.15048e-05
8.1407e-06
6.48908e-05
0.000306516
0.000266686
0.000672523
0.00106374
0.00118938
0.000235609
0.000188713
7.29769e-06
0
7.15473e-07
0.0665379
0.0389451
0.00832644
0.0237303
0.0337367
0.00526282
0.016757
0.0142416
0.0390762
0.0403481
0.0839331
0.0862901
0.0860567
0.0889928
0.0886947
0.100709
0.0595309
0.0817838
0.0757328
0.0872354
0.0996213
0.140618
0.082667
0.201532
0.692921
0.789514
0.861163
0.924489
0.908892
0.952885
0.862136
0.794984
0.663612
0.467173
0.225234
17.0066
14.9253
19.1053
10.8493
17.0683
13.5792
16.3089
8.86259
15.4695
6.89706
20.7386
21.3589
16.598
19.2586
16.693
13.704
28.3016
33.2031
52.3387
35.5691
49.8329
35.1279
38.3072
19.762
0.00057368
0.000556776
0.000498988
0.000500001
0.000186229
0.000182819
0.000155433
0.000150446
0.000186327
0.000182243
0.00018752
0.000184641
0.000171838
0.000166405
0.000183481
0.000181733
0.00019586
0.000189488
0.000184442
0.000178028
0.000173859
0.000169593
0.000157828
4.44932e-05
4.4786e-05
4.25012e-05
4.32663e-05
4.73955e-05
4.47977e-05
4.79351e-05
4.56748e-05
4.85101e-05
4.70476e-05
4.55394e-05
5.40465e-05
5.12098e-05
5.23819e-05
4.94607e-05
5.26058e-05
5.4007e-05
4.01479e-07
8.9348e-07
6.53437e-06
7.77729e-06
2.03129e-06
3.08597e-06
0.000154286
0.000128583
0.000185021
9.33714e-06
3.4878e-05
4.89613e-06
1.21586e-05
8.80824e-06
1.61718e-05
1.51726e-05
5.80121e-07
4.05967e-07
1.76609e-05
7.88432e-06
1.75363e-05
1.02119e-05
9.40551e-06
8.2601e-06
5.2591e-08
3.00448e-08
1.01844e-05
1.06487e-05
1.43426e-05
0.000772845
0.000365659
0.00188581
0.000535302
0.00221351
0.0019194
0.00376162
0.00336275
0.00596119
0.0084504
0.00860165
0.0105004
0.0100829
0.0114453
0.0141615
0.0400216
0.128857
0.108547
0.106942
0.0654626
0.0768987
0.349455
0.144527
0.717367
0.786343
0.778664
0.79395
0.846517
0.832487
0.85677
0.918612
0.987771
1.12462
1.23584
1.72663
2.3497
17.1671
18.8956
19.2762
16.0945
19.1955
16.8847
11.8557
7.54931
15.1083
18.3422
18.6861
14.9149
11.4883
6.48837
6.10256
4.20732
5.00588
43.4982
169.618
38.7626
37.8391
32.6238
22.7944
0.000563191
0.000569336
0.000212829
0.000210028
0.000208284
0.000205392
0.000200315
0.000197456
0.000217728
0.000216392
0.000200744
0.00019857
0.000197086
0.000192562
0.000221795
0.000213395
0.000197351
0.000184621
0.000183948
0.000180905
0.000178309
0.000170139
5.7846e-05
5.50137e-05
5.45468e-05
5.23641e-05
5.21816e-05
5.29454e-05
5.07811e-05
5.0554e-05
4.78862e-05
4.52247e-05
4.25503e-05
3.80514e-05
4.63006e-05
5.1238e-05
5.46717e-05
5.58116e-05
5.69503e-05
6.52453e-05
6.7521e-05
8.88779e-05
4.6539e-05
6.66877e-06
7.11179e-06
8.5283e-06
6.92943e-06
7.59153e-06
9.05357e-07
1.58071e-06
5.4333e-06
4.34305e-06
1.97684e-05
9.10676e-06
1.67643e-05
7.09416e-07
4.37092e-07
1.10773e-06
3.10621e-06
1.75961e-05
1.2075e-05
1.17945e-07
1.14021e-05
1.57535e-05
1.71952e-05
0.000154975
1.53769e-05
1.16836e-05
1.11095e-05
1.55966e-05
0.000172975
0.000287627
7.0539e-05
0.000407999
0.00220551
0.00445977
0.0502475
0.0035838
0.0583221
0.011976
0.0130456
0.012025
0.0123484
0.0136038
0.201091
0.237638
0.357137
0.416695
0.275716
0.300327
0.898376
0.926604
0.92101
0.831223
0.705307
0.659055
0.729652
0.760339
0.757231
0.792051
0.856191
1.03081
1.13574
1.84008
2.16348
12.0215
14.7319
22.1106
17.1636
20.5603
22.566
18.0024
20.3753
16.5344
18.2418
19.3916
5.70801
5.01041
5.39606
7.94391
7.43925
10.4711
13.0323
10.094
14.1581
15.6113
29.3877
37.3845
0.000189378
0.000414439
0.000393564
0.000183914
0.000204486
0.000181806
0.000165578
0.000166961
0.000219145
0.000211736
0.000244962
0.000227758
0.000252431
0.000246539
0.000231491
0.000229765
0.000190775
0.000179609
6.21453e-05
0.000195129
4.55147e-05
0.000178954
6.15138e-05
5.89951e-05
6.11146e-05
5.76748e-05
5.68372e-05
5.08159e-05
4.93189e-05
3.5388e-05
3.45646e-05
3.01536e-05
3.07173e-05
3.22266e-05
3.83621e-05
4.47281e-05
5.25255e-05
5.92826e-05
4.22269e-05
4.91268e-05
4.77548e-05
5.06816e-05
1.28165e-05
1.56537e-05
1.00869e-05
7.19048e-06
7.65239e-06
8.00259e-06
7.51007e-06
7.93971e-06
4.97123e-06
5.61364e-06
1.75711e-05
1.46333e-05
1.82677e-05
1.74103e-05
1.08404e-06
1.18936e-05
3.33498e-05
0.000151211
4.03471e-06
4.87242e-06
1.92226e-06
1.20932e-05
1.48022e-05
1.50804e-05
1.4184e-05
1.48897e-05
1.47943e-05
1.47776e-05
2.26627e-05
2.71003e-05
4.10497e-05
8.53575e-05
0.000102508
0.000119844
3.26165e-05
0.0260423
0.0611781
0.118395
0.127295
0.0637538
0.0766001
0.0206951
0.0252825
0.0189991
0.204469
0.28492
0.249321
0.223331
0.54901
0.637158
0.510731
0.649778
0.606871
0.864071
0.474391
1.00594
0.433814
0.886579
0.425299
0.804475
0.41031
0.759021
2.2694
2.77478
7.72127
3.076
12.0304
12.9536
19.6214
16.7827
15.189
18.1352
14.596
11.7275
6.75762
6.90504
5.58547
5.8519
6.46402
13.3785
7.88374
18.9809
21.4747
26.4405
28.9959
25.815
0.000201176
0.00035317
0.000236509
0.000234783
0.00023168
0.000247427
0.000231313
0.000216761
0.000221958
0.000242334
0.000116593
0.000105152
9.2562e-05
9.04248e-05
8.92969e-05
9.85687e-05
9.11081e-05
8.39229e-05
6.49695e-05
9.66423e-05
5.24914e-05
0.000102179
6.77932e-05
4.89152e-05
5.70045e-05
5.84606e-05
5.16927e-05
4.99958e-05
4.75901e-05
4.5079e-05
3.73283e-05
3.81402e-05
3.97201e-05
4.18206e-05
5.35774e-05
6.28006e-05
6.62498e-05
7.7608e-05
8.42251e-05
0.00010126
0.000108885
0.000180287
1.26033e-05
5.93725e-06
1.02393e-05
8.91019e-06
7.29268e-06
8.68893e-06
8.17136e-06
9.37592e-06
6.18716e-06
5.37567e-07
1.1964e-05
1.1713e-05
1.15838e-05
4.85161e-06
1.35252e-06
1.53779e-06
2.50025e-06
8.0888e-06
0.000146334
0.000103414
0.000135685
0.000130169
2.1715e-05
1.84475e-05
1.40021e-05
1.28998e-05
1.26054e-05
1.08022e-05
2.12105e-05
3.4345e-05
4.00782e-05
6.38677e-05
3.02565e-05
1.33605e-05
3.86612e-05
4.97474e-05
6.23472e-05
0.00227246
0.00175774
0.173861
0.206755
0.11271
0.0856466
0.0436055
0.132661
0.0711376
0.201103
0.146715
0.215743
0.383388
0.194032
0.195466
0.406594
0.237275
0.251596
0.246183
0.348397
0.270652
0.506449
0.21635
9.9474
11.641
16.1368
17.4938
11.692
14.4337
17.3896
11.8359
14.8455
21.2944
20.5403
19.2673
19.5131
15.9108
13.665
6.93221
16.3021
11.9776
19.2961
27.6714
32.3858
37.9991
46.7645
31.6893
40.0147
15.0422
0.000268168
0.000256141
0.000226015
0.000246213
0.000231171
0.00024152
0.000174986
0.000232232
0.00012184
0.00011365
0.000122307
0.000106019
8.56307e-05
0.000114318
0.000105534
9.87928e-05
9.36676e-05
0.00010272
0.000105226
0.000113579
0.000102235
9.22238e-05
5.52795e-05
5.56367e-05
5.41868e-05
4.49506e-05
4.22717e-05
4.23707e-05
3.68154e-05
4.23982e-05
4.37161e-05
3.9456e-05
4.5686e-05
4.98572e-05
7.71443e-05
9.16798e-05
8.73068e-05
0.00012038
0.000139106
0.000178207
0.00029825
0.000352036
0.000285108
0.000306704
0.000283551
4.1113e-05
1.67947e-05
5.35554e-05
4.16517e-05
5.08241e-06
6.04526e-06
9.14467e-06
8.78023e-06
8.87026e-06
6.62768e-06
9.26638e-06
4.56305e-05
4.08361e-05
5.71718e-05
4.23475e-05
1.78729e-06
1.42603e-06
1.62358e-06
8.61026e-07
6.5883e-07
5.69039e-06
8.90396e-06
0.000103565
5.44305e-05
3.29461e-05
3.69249e-05
3.44216e-05
3.213e-05
2.36943e-05
1.26545e-05
0.000113808
0.000202639
0.000235545
0.000237543
6.95585e-05
0.000154963
0.000207644
0.00014147
0.215169
0.18722
0.207389
0.186067
0.168516
0.211012
0.211158
0.205045
0.208215
0.204364
0.337094
5.83799
5.68464
12.2058
2.03903
7.58063
1.27646
11.2124
9.87195
12.5787
1.68615
10.4093
15.6036
14.1074
15.4962
17.8814
18.1439
16.9717
17.7109
19.7842
20.2964
22.4646
22.4002
24.259
21.6564
25.8497
25.8275
23.3401
18.4475
11.8811
16.5992
29.4131
50.9396
56.2659
42.4869
0.000266266
0.000436691
0.000186107
0.000195102
0.000225778
0.000128094
0.000117265
0.00013311
0.000142517
0.000139523
0.000147935
0.000147889
0.00015919
0.000262702
9.63165e-05
0.000109851
0.000112556
0.000203227
0.000194659
0.000158587
9.25093e-05
0.000371996
0.000296283
0.000110663
9.96661e-05
7.95467e-05
5.19224e-05
8.11494e-05
5.55907e-05
5.39853e-05
5.6077e-05
5.43579e-05
5.3671e-05
7.12759e-05
9.0504e-05
0.000108098
0.000137052
0.000179064
0.000250752
0.000337823
0.000349063
0.000347935
0.000323735
0.000350674
0.000267305
0.000348492
0.000352571
0.000373504
0.000185457
0.000165859
0.000150976
0.00010655
9.10265e-05
8.02928e-05
6.3045e-05
4.54183e-05
3.42952e-05
1.4456e-05
1.63629e-05
1.19594e-05
3.68944e-06
6.92458e-06
1.39622e-06
6.70664e-07
5.76667e-07
4.20398e-07
2.28815e-05
6.77903e-06
6.90118e-06
2.81581e-05
2.66621e-05
9.8784e-06
1.43941e-05
1.74981e-05
1.96402e-05
2.50126e-05
0.0011031
0.00134613
0.000162757
0.000200626
0.000177144
0.000171815
0.000148874
0.000160183
0.000115502
0.0643225
0.00500262
0.146988
0.173802
0.216968
0.264492
0.16853
0.243484
0.133515
0.173312
0.0212438
0.263684
0.29932
0.173366
0.0853595
0.125245
8.88517
12.876
10.824
10.4912
9.44354
10.9136
10.393
15.3099
16.2511
15.9165
16.8602
19.7649
20.5994
22.6281
22.9025
24.9331
23.7412
24.4246
21.3448
21.6678
9.71501
6.42641
5.54752
196.07
171.926
215.756
53.9546
0.000499847
0.000668298
0.000210637
0.00030865
0.000158059
0.000290855
0.000269439
0.000196479
0.000146431
0.000152538
0.000127543
0.000134336
0.000159131
0.000210918
0.000127702
0.000137008
0.000210388
0.000264536
0.000199719
0.00106446
0.000649211
0.00047827
0.000425918
0.000350417
0.00015772
0.000390085
0.000113038
0.000169532
7.49655e-05
6.50175e-05
0.00021135
9.26773e-05
8.48696e-05
0.000124356
0.000128027
0.00017832
0.000242183
0.000302739
0.000379349
0.000393707
0.000274082
0.00016765
0.000339558
0.000188255
0.00041401
0.000476704
0.000618254
0.000537836
0.000259746
0.000613011
0.000183764
0.000572535
0.000107261
3.77975e-05
1.70062e-05
2.00296e-05
1.65012e-05
1.6338e-05
1.35116e-05
4.80446e-06
1.11065e-05
1.22238e-05
1.79274e-06
1.15371e-05
1.04136e-06
7.43947e-06
5.40734e-06
4.87547e-06
5.31732e-06
4.88925e-06
8.28234e-06
8.20586e-06
1.03242e-05
9.8656e-06
1.12413e-05
1.60192e-05
3.4809e-05
4.72673e-05
5.14259e-05
0.000101964
0.00010317
0.000153592
0.000151219
0.000160027
0.000121204
0.000121402
0.00113704
0.00216407
0.0239039
0.0315446
0.195253
0.096592
0.14748
0.0593173
0.000206032
0.000260072
0.00037693
0.256643
0.182816
0.304891
0.40525
0.626829
3.65682
10.6068
10.0048
6.01098
6.69841
7.58944
8.63271
16.9978
17.8293
14.4569
17.5572
19.1478
20.495
20.4205
22.1409
23.4802
23.8742
22.9712
21.748
17.204
3.80622
5.18377
4.48667
5.37828
6.93542
47.7726
0.000939916
0.0013031
0.000815388
0.00125819
0.000740389
0.000796172
0.000204933
0.00017832
0.00018254
0.00013618
0.00013905
0.000236759
0.000240987
0.00022234
0.000170839
0.000137785
0.000249217
0.00187526
0.00142013
0.00143513
0.00138167
0.00064351
0.000591601
0.000629678
0.00141183
0.00216031
0.000840176
0.000368725
0.000158603
0.000107939
0.000582193
0.000537631
0.000312335
0.000249465
0.000460243
0.00066123
0.000576827
0.000603837
0.000564202
0.000540267
0.000616296
0.00049134
0.000637043
0.000526527
0.000586943
0.000715204
0.000511356
0.000777145
0.00066286
0.000918189
0.000597469
0.000844004
0.000106367
6.73284e-05
4.89254e-05
7.94669e-06
1.83218e-05
1.87626e-05
1.31086e-05
6.81623e-06
1.41789e-05
2.68395e-06
1.17723e-05
3.91689e-06
1.50157e-08
1.35242e-08
4.33921e-06
6.486e-06
2.53306e-07
5.14212e-06
7.92423e-06
7.53998e-06
6.99205e-06
9.04949e-06
7.52996e-05
1.018e-05
0.000183085
3.17425e-05
0.00011695
0.000110407
0.000144414
0.00012062
0.000105297
9.84675e-05
0.00311582
0.00327057
0.00376079
0.0034769
0.0040996
0.00427594
0.00384287
0.00346442
0.00296364
0.00216064
0.00182067
0.00456437
0.000294476
0.000427862
0.653506
0.479411
1.29872
9.80668
3.957
10.5773
13.872
2.43596
2.01257
1.589
1.79372
11.1329
17.9996
13.0465
14.8308
12.0188
16.2305
14.1655
14.9679
17.6873
17.5635
22.0625
21.4966
20.9608
18.6887
3.82772
27.8743
22.0652
27.2585
31.0746
0.0014755
0.00386525
0.00300323
0.00196805
0.000742899
0.00109078
0.000652861
0.000337021
0.000197561
0.000212475
0.000285261
0.000897412
0.000399301
0.000392721
0.000818276
0.00206466
0.00217476
0.00219083
0.00166973
0.00159184
0.000668849
0.00316604
0.00184375
0.00921747
0.00754515
0.0109793
0.0108795
0.00997938
0.0193433
0.0115915
0.00365937
0.00171068
0.00112296
0.000418812
0.000849232
0.000854585
0.000362676
0.000676185
0.000648175
0.000800396
0.000811346
0.000963969
0.000728028
0.000971401
0.000801274
0.000979221
0.000865476
0.000939438
0.00100856
0.001039
0.000929291
0.00110253
1.08058e-05
0
3.92779e-06
4.0352e-06
9.35902e-06
1.07297e-06
1.68442e-06
2.3162e-07
8.85959e-07
8.87645e-07
1.28214e-06
0
2.00097e-08
1.12753e-07
1.14727e-08
2.02275e-07
1.87856e-07
1.99262e-07
2.72983e-06
6.57529e-06
2.32556e-05
8.22559e-05
0.000147153
5.48213e-05
0.000292414
0.000192937
0.000131879
0.000140956
0.000178202
0.000135206
0.000266208
0.000105156
0.000434763
0.00304691
0.00336966
0.00423537