# vtk DataFile Version 3.0
vtk output
ASCII
DATASET POLYDATA
POINTS 24578 float
-151.53 81.83 75.23
-146.76 79.98 77.9
-147.26 82.51 76.57
-151.22 79.35 76.36
-146.3 77.32 78.47
-150.76 76.75 77.01
-146.01 74.82 79.56
-150.4 74.19 77.98
-145.43 72.07 79.86
-149.95 71.56 78.66
-145.02 69.6 80.58
-149.55 69.11 79.46
-144.64 67.21 81.53
-149.14 66.64 80.2
-144.27 64.77 82.34
-148.68 64.12 80.8
-144.06 62.18 83.1
-148.26 61.63 81.51
-143.83 59.57 83.96
-148.2 59.14 82.73
-143.54 56.98 84.63
-148.02 56.58 83.6
-143.3 54.28 84.95
-147.52 53.77 83.62
-142.71 51.53 84.98
-147.03 50.98 83.68
-142.34 49.05 85.71
-146.66 48.52 84.06
-142.24 46.57 86.6
-146.26 46.05 84.34
-145.97 43.63 84.94
-141.82 44.09 87.11
-141.56 41.44 87.04
-145.67 41.21 85.5
-140.98 38.76 87.5
-145.29 38.66 85.7
-140.75 36.16 87.85
-144.89 36.1 85.85
-144.62 33.53 86.3
-140.46 33.57 88.45
-140.13 30.94 88.56
-144.22 30.94 86.41
-143.81 28.2 86.49
-139.84 28.2 88.9
-143.44 25.45 86.68
-139.6 25.51 89.44
-143.18 22.67 87.12
-139.22 22.78 89.44
-142.9 19.88 87.51
-138.79 20.04 89.71
-142.6 17.15 87.83
-138.39 17.32 89.75
-137.91 14.61 89.73
-142.25 14.42 88.03
-141.99 11.68 88.46
-137.6 11.89 89.94
-141.61 8.95 88.57
-137.22 9.16 90.05
-141.13 6.27 88.48
-136.86 6.45 90.3
-140.68 3.58 88.47
-136.37 3.76 90.16
-140.25 0.89 88.51
-135.88 1.07 90.03
-139.71 -1.79 88.26
-135.64 -1.76 90.02
-135.64 -4.55 89.75
-140 -4.44 88.09
-135.69 -7.09 89
-140.34 -7.12 88.03
-135.79 -9.62 88.23
-140.37 -9.69 87.25
-135.84 -12.19 87.54
-140.43 -12.27 86.54
-135.99 -14.75 87
-140.5 -14.79 85.8
-136.21 -17.35 86.64
-140.62 -17.33 85.19
-136.42 -19.93 86.21
-140.85 -19.94 84.82
-136.49 -22.42 85.34
-140.79 -22.34 83.7
-136.45 -24.91 84.43
-140.78 -24.79 82.73
-136.55 -27.44 83.74
-140.84 -27.3 81.99
-136.57 -29.97 82.98
-140.97 -29.86 81.42
-136.73 -32.54 82.43
-141.02 -32.36 80.63
-136.76 -35.12 81.64
-141.09 -34.97 79.94
-141.32 -37.69 79.69
-136.83 -37.72 80.96
-141.45 -40.33 79.13
-136.9 -40.34 80.32
-137.11 -43 79.41
-141.48 -42.91 78.35
-141.57 -45.38 77.61
-137.04 -45.54 78.64
-141.59 -47.8 76.7
-137.03 -47.91 77.56
-141.86 -50.43 76.49
-137.15 -50.39 76.9
-141.9 -52.84 75.63
-137.27 -52.84 76.11
-141.91 -55.11 74.4
-137.53 -55.19 75.26
-137.48 -57.49 74.21
-141.9 -57.35 73.07
-142.03 -59.74 72.14
-137.7 -59.92 73.43
-142.25 -62.22 71.44
-137.97 -62.48 72.92
-142.57 -64.67 70.67
-138.15 -65.14 72.4
-142.87 -67.1 69.86
-138.34 -67.41 71.12
-143.16 -69.56 69.09
-138.58 -69.8 70.17
-143.42 -71.97 68.22
-138.72 -72 68.84
-143.42 -74.03 66.78
-138.71 -74.17 67.59
-143.52 -76.26 65.69
-138.9 -76.5 66.65
-143.64 -78.59 64.8
-139.03 -78.91 65.88
-143.64 -80.66 63.43
-139.36 -81.09 64.3
-142.41 80.53 78.87
-142.88 83.09 77.59
-141.83 77.87 79.86
-141.49 75.33 80.8
-140.97 72.61 81.19
-140.47 70.13 81.77
-140.01 67.69 82.47
-139.94 65.21 83.59
-139.84 62.72 84.64
-139.44 60.04 85.13
-139.12 57.42 85.86
-138.88 54.8 86.42
-138.56 52.14 86.78
-138.19 49.56 87.25
-137.83 46.99 87.76
-137.58 44.31 88.01
-137.31 41.63 88.23
-137.03 38.95 89.21
-136.57 36.22 89.77
-136.22 33.57 90.06
-135.88 30.91 90.36
-135.74 28.24 91.1
-135.47 25.56 91.56
-134.94 22.88 91.41
-134.47 20.19 91.43
-134.08 17.49 91.57
-133.61 14.8 91.52
-133.09 12.1 91.2
-132.71 9.37 91.23
-132.3 6.67 91.32
-131.94 3.96 91.53
-131.76 1.11 91.67
-131.5 -1.71 91.62
-131.31 -4.41 90.89
-131.1 -7.09 90.13
-131.35 -9.7 89.79
-131.55 -12.29 89.33
-131.63 -14.81 88.62
-131.74 -17.34 87.96
-131.85 -19.85 87.19
-132.06 -22.42 86.66
-132.19 -25.02 86.17
-132.25 -27.57 85.48
-132.26 -30.09 84.65
-132.44 -32.72 84.26
-132.56 -35.36 83.72
-132.63 -37.97 83.04
-132.75 -40.58 81.94
-132.83 -43.16 80.72
-132.77 -45.71 79.94
-132.75 -48.3 79.25
-132.77 -50.64 78.12
-132.8 -52.99 77
-132.95 -55.32 76.2
-133.13 -57.69 75.53
-133.33 -60.11 74.69
-133.5 -62.48 73.72
-133.64 -65.09 73
-133.72 -67.59 72.04
-133.86 -69.81 70.74
-134.01 -72.03 69.43
-134.18 -74.44 68.63
-134.35 -76.86 67.84
-134.77 -79.33 66.76
-135.07 -81.54 65.2
-138.04 81.11 79.93
-138.51 83.66 78.64
-137.48 78.45 80.95
-136.81 75.7 81.58
-136.53 73.2 82.68
-136.2 70.85 83.66
-136.01 68.35 84.53
-135.78 65.76 85.17
-135.49 63.19 85.82
-135.19 60.56 86.38
-134.98 57.99 87.45
-134.76 55.37 88.25
-134.53 52.77 88.88
-134 50.11 89.1
-133.65 47.3 89.03
-133.3 44.56 89.42
-133.29 41.92 90.17
-132.89 39.2 91
-132.5 36.43 91.58
-132.05 33.68 92.21
-131.7 30.98 92.36
-131.44 28.31 92.66
-131.04 25.67 93.02
-130.62 23.02 93.01
-130.15 20.36 93.11
-129.82 17.66 93.35
-129.27 14.97 93.05
-128.74 12.27 92.73
-128.4 9.55 92.87
-127.96 6.85 92.86
-127.84 4 93.22
-127.59 1.17 93.17
-127.27 -1.64 92.97
-127.25 -4.36 92.57
-127.15 -7.08 92.07
-127.17 -9.83 91.83
-127.29 -12.38 91.16
-127.29 -14.86 90.23
-127.44 -17.42 89.6
-127.57 -19.97 88.96
-127.76 -22.53 88.35
-127.82 -25.1 87.72
-127.85 -27.64 86.95
-127.95 -30.27 86.46
-128.2 -32.95 86.24
-128.25 -35.54 85.49
-128.5 -38.26 84.8
-128.59 -40.83 83.55
-128.62 -43.36 82.3
-128.5 -45.86 81.36
-128.57 -48.51 80.64
-128.51 -50.96 79.6
-128.63 -53.39 78.68
-128.82 -55.89 78.24
-129.15 -58.39 77.85
-129.06 -60.46 76.29
-128.99 -62.4 74.44
-128.98 -64.79 73.19
-129.01 -67.15 71.96
-128.97 -69.58 70.84
-129.28 -72.05 69.98
-129.48 -74.55 69.36
-130.01 -77.21 68.65
-130.42 -79.71 67.63
-130.79 -82.03 66.21
-133.82 81.84 81.46
-134.36 84.47 80.38
-133.19 79.09 82.22
-132.49 76.28 82.7
-131.95 73.65 83.71
-131.93 71.29 85
-131.87 68.9 86.17
-131.5 66.27 86.57
-131.13 63.64 86.94
-130.87 61.02 87.58
-130.68 58.45 88.47
-130.46 55.86 89.34
-130.18 53.24 90.02
-129.88 50.44 90.31
-129.64 47.69 90.79
-129.42 44.94 91.36
-129.23 42.2 92.03
-128.71 39.37 92.41
-128.45 36.65 93.48
-128.03 33.86 94.03
-127.47 31.03 94.24
-127.19 28.41 94.71
-126.88 25.78 95.12
-126.32 23.16 94.88
-125.8 20.53 94.74
-125.36 17.84 94.64
-124.86 15.16 94.43
-124.49 12.44 94.52
-124.2 9.71 94.8
-123.95 6.88 94.78
-123.68 4.05 94.73
-123.4 1.23 94.62
-123.18 -1.6 94.69
-123.37 -4.41 94.84
-123.31 -7.12 94.32
-123.16 -9.79 93.63
-122.95 -12.42 92.76
-123.09 -14.99 92.12
-123.27 -17.57 91.56
-123.4 -20.13 90.9
-123.5 -22.66 90.14
-123.53 -25.22 89.42
-123.57 -27.78 88.7
-123.68 -30.42 88.22
-123.74 -33.02 87.62
-123.94 -35.69 86.77
-124.14 -38.36 85.91
-124.27 -40.96 84.88
-124.51 -43.67 84.17
-124.44 -46.18 83.04
-124.36 -48.68 81.9
-124.32 -51.14 80.87
-124.34 -53.66 80.01
-124.65 -56.22 79.72
-124.85 -58.64 79.12
-124.76 -60.62 77.46
-124.57 -62.46 75.52
-124.49 -64.69 73.94
-124.51 -67.1 72.74
-124.57 -69.65 71.8
-124.65 -72.26 70.99
-125.14 -74.86 70.13
-125.57 -77.36 69.04
-126.01 -79.84 67.96
-126.39 -82.16 66.58
-129.58 82.52 82.46
-130.23 85.32 82
-128.9 79.77 83.09
-128.4 77.11 83.84
-127.98 74.41 84.96
-127.56 71.77 85.9
-127.33 69.24 86.57
-127.15 66.76 87.43
-126.86 64.14 88.01
-126.52 61.49 88.81
-126.36 58.96 89.84
-126.14 56.38 90.8
-125.97 53.53 91.15
-125.51 50.64 91.5
-125.42 47.93 92.31
-125.22 45.19 93.14
-125.05 42.45 93.81
-124.64 39.66 94.38
-124.31 36.88 95.2
-123.77 34.05 95.42
-123.26 31.23 95.69
-122.78 28.52 96.11
-122.44 25.87 96.38
-121.98 23.27 96.26
-121.42 20.65 96.06
-121.04 17.96 96.08
-120.68 15.29 96.36
-120.38 12.57 96.56
-120.17 9.75 96.72
-119.91 6.93 96.66
-119.55 4.12 96.37
-119.27 1.3 96.28
-119.07 -1.54 96.32
-119.25 -4.36 96.51
-119.22 -7.1 96.08
-119.04 -9.77 95.31
-119 -12.5 94.8
-118.91 -15.21 94.19
-119.08 -17.79 93.59
-119.2 -20.38 92.98
-119.3 -22.91 92.18
-119.31 -25.47 91.43
-119.31 -28 90.63
-119.33 -30.55 89.87
-119.45 -33.15 88.84
-119.6 -35.8 87.91
-119.83 -38.5 87.17
-120.05 -41.2 86.43
-120.26 -43.87 85.57
-120.32 -46.42 84.63
-120.24 -48.94 83.59
-120.24 -51.46 82.7
-120.29 -53.99 81.83
-120.1 -56.26 80.6
-120.22 -58.48 79.45
-120.33 -60.66 78.2
-120.24 -62.81 76.84
-120.26 -65.2 75.6
-120.18 -67.48 74.2
-120.23 -70.02 73.25
-120.52 -72.67 72.16
-120.81 -75.19 70.96
-121.18 -77.58 69.65
-121.52 -79.9 68.24
-121.92 -82.27 66.97
-125.25 83.17 83.41
-125.88 85.88 82.84
-124.6 80.45 83.94
-124.22 77.72 84.75
-123.94 75.09 85.93
-123.46 72.43 86.81
-122.93 69.71 87.46
-122.73 67.14 88.15
-122.59 64.64 89.06
-122.25 62 89.9
-121.95 59.4 90.9
-121.96 56.7 91.92
-121.73 53.8 92.2
-121.47 50.99 93.04
-121.27 48.22 94.07
-121.07 45.45 94.8
-120.88 42.69 95.58
-120.53 39.9 96.26
-120.06 37.06 96.59
-119.52 34.23 96.77
-119.19 31.45 97.53
-118.64 28.71 97.7
-118.07 25.97 97.81
-117.65 23.36 97.86
-117.2 20.75 97.82
-116.76 18.09 97.81
-116.45 15.42 98.16
-116.25 12.62 98.27
-115.94 9.82 98.09
-115.72 7.01 98.16
-115.43 4.19 98.08
-115.24 1.34 98.13
-115.02 -1.5 98.11
-115.03 -4.27 97.86
-115.05 -7.04 97.62
-115.01 -9.78 97.12
-114.91 -12.5 96.46
-114.83 -15.21 95.87
-114.79 -17.94 95.36
-114.95 -20.55 94.79
-115.09 -23.14 94.17
-115.09 -25.69 93.41
-115.09 -28.25 92.66
-115.19 -30.82 91.55
-115.34 -33.43 90.58
-115.56 -36.16 89.86
-115.65 -38.76 88.81
-115.73 -41.32 87.6
-115.89 -43.96 86.62
-115.94 -46.5 85.75
-115.97 -49.02 84.82
-116.06 -51.62 84.1
-116.16 -54.22 83.41
-116 -56.46 81.98
-115.78 -58.59 80.34
-115.73 -60.7 78.9
-115.82 -63.01 77.89
-115.91 -65.56 77.02
-115.85 -67.86 75.66
-116.07 -70.39 74.35
-116.45 -73.24 73.66
-116.73 -75.78 72.45
-116.87 -78.01 70.66
-117.13 -80.1 68.85
-117.46 -82.37 67.36
-120.93 83.58 83.84
-121.35 86.18 83.25
-120.43 80.92 84.76
-120.24 78.29 85.68
-119.85 75.73 86.84
-119.39 73.08 87.68
-118.97 70.39 88.56
-118.52 67.71 89.38
-118.27 65.1 89.93
-117.89 62.43 90.71
-117.77 59.68 91.68
-117.62 56.89 92.64
-117.53 54.11 93.38
-117.25 51.28 94.27
-116.99 48.44 95.07
-116.61 45.56 95.63
-116.37 42.76 96.18
-116.01 39.98 96.85
-115.62 37.17 97.41
-115.23 34.39 98.02
-114.97 31.62 98.96
-114.53 28.91 99.33
-113.9 26.15 99.26
-113.4 23.47 99.53
-113.04 20.85 99.72
-112.61 18.2 99.71
-112.34 15.45 99.77
-112.11 12.66 99.75
-111.7 9.9 99.43
-111.54 7.08 99.65
-111.31 4.26 99.65
-111.1 1.42 99.6
-110.91 -1.42 99.76
-110.84 -4.17 99.3
-110.76 -6.92 98.71
-110.8 -9.71 98.47
-110.76 -12.46 97.96
-110.67 -15.19 97.39
-110.65 -17.93 96.92
-110.56 -20.62 96.27
-110.66 -23.19 95.59
[...]
CELL_DATA 49152
SCALARS Temperature float 1
LOOKUP_TABLE default
80.1625
75.4018
76.9279
67.3811
79.1049
63.7097
101.089
82.4918
78.447
75.7998
82.7648
43.9759
50.6504
72.1392
59.0382
79.4733
81.9709
99.7206
59.6869
69.2493
72.288
84.759
99.2567
90.865
100.4
73.0164
102.447
95.194
97.3938
74.5964
94.9424
93.6921
54.5108
54.3683
47.8749
80.6708
77.0138
78.3386
71.1468
78.2471
85.7722
87.2712
94.547
106.287
104.708
84.7337
86.251
67.281
71.5279
55.7382
75.3644
70.303
78.7973
61.0329
45.8996
47.3778
66.1501
67.3572
41.5319
49.4468
40.8917
49.7872
74.3718
69.9052
60.2468
61.454
95.9052
99.4695
92.0291
89.3103
91.571
88.3658
89.7829
81.1441
88.9906
66.371
74.89
79.3693
69.8921
94.8621
80.7198
87.3128
74.4251
77.1439
75.7867
76.6127
73.9607
81.2383
80.3803
89.5417
104.499
75.7007
71.6714
74.2559
70.9081
68.9973
69.745
73.8589
93.2317
100.963
112.189
106.751
99.9785
100.383
109.166
92.6742
89.7335
109.435
96.0995
92.0061
92.3216
104.02
83.0324
96.0321
76.573
69.7064
63.1613
53.401
51.3685
82.3616
100.13
87.1407
82.9772
86.7364
76.5061
85.3838
43.1781
45.6962
78.3042
79.6038
52.3545
76.9926
60.4053
75.7733
88.2022
98.0067
87.4412
87.1558
95.9124
98.9898
107.915
61.1676
83.3683
52.7175
81.2982
77.7778
58.0327
49.8811
60.7883
61.7918
66.7036
105.309
88.3301
96.6209
87.2659
107.223
85.975
89.9782
97.6726
102.365
97.8033
106.097
53.3148
57.9842
67.4166
59.7647
76.3361
71.9234
74.7621
94.0498
72.7712
61.5765
81.1955
67.8863
68.7277
47.6003
51.659
41.3111
55.8241
52.5672
99.1789
92.7672
79.717
81.0136
84.09
88.0819
87.8641
81.67
71.0349
75.3972
42.6189
29.9317
87.7989
87.9862
97.1571
89.4832
100.672
78.6362
75.5846
84.2411
79.78
79.4084
74.1563
89.4549
86.1845
92.3601
92.8895
78.4061
78.6241
81.6646
64.6121
68.0903
81.3392
73.5199
86.4488
75.4627
70.9204
84.9111
81.917
86.6768
91.9924
80.7211
90.1723
75.9494
71.6632
72.0247
96.7543
93.2758
98.768
92.9751
81.2664
106.806
91.5726
100.139
100.614
97.2897
86.3082
80.3542
98.306
84.5628
96.5404
93.3364
86.984
79.2225
65.8255
85.4882
90.1615
92.9326
100.882
103.554
82.738
91.4397
85.6858
54.7372
39.1916
36.4787
85.0199
77.6188
54.7876
46.5502
94.515
88.6094
92.0937
94.1571
72.1984
96.1886
85.3579
104.27
100.272
106.357
81.2648
88.0209
68.9809
71.6261
81.6092
57.3568
55.3038
63.3063
59.9263
83.9547
92.3105
80.2428
108.07
94.0262
89.491
81.2096
98.2029
104.121
106.25
77.1853
47.8793
51.8769
60.0555
66.9408
73.1674
76.1741
88.1552
59.9301
56.3173
63.0968
55.9804
63.6433
56.6165
54.6836
57.1573
62.393
84.284
68.3205
89.0943
94.4559
83.9221
80.1156
74.3142
79.2563
80.1067
91.8413
65.5638
41.9787
38.0767
62.1281
71.5432
83.2819
74.7569
99.3767
93.5504
99.1729
78.7336
78.2511
87.5866
72.5325
73.3904
68.924
67.8765
78.8373
72.4984
78.0617
63.2648
72.4287
74.5893
70.2834
77.0378
95.9687
93.2081
100.7
70.7971
66.5605
53.7582
58.0473
82.6545
70.7585
86.2961
88.5914
82.0731
75.4963
76.315
77.0741
80.8785
93.7814
82.9345
110.598
107.353
116.526
111.796
126.593
128.444
109.141
135.517
114.978
114.748
116.863
112.18
127.277
125.999
119.416
123.493
115.286
104.878
114.007
93.2059
104.793
58.1817
62.9208
55.1367
55.5036
82.81
82.6403
80.718
67.9648
101.628
94.3722
90.0166
93.313
104.015
64.7581
81.547
58.2799
80.3825
64.1717
86.1237
72.5338
70.9334
76.001
74.9676
85.905
62.2292
49.165
48.6121
45.9979
74.7322
78.9362
66.3965
102.629
76.4911
97.4547
103.444
74.0614
76.0349
87.4664
83.067
98.0285
54.4111
42.87
60.4897
65.8422
60.0358
68.2466
59.3807
60.1272
86.4258
68.9427
73.8149
68.6827
74.712
85.5017
82.7188
84.3453
79.4417
99.1717
87.8334
86.2437
80.1334
76.1484
93.9514
51.7668
48.6701
64.0356
75.7166
72.0469
81.0178
86.4505
82.1926
88.2895
93.5004
89.0513
82.8908
68.5495
72.3571
86.5817
75.8363
78.0986
70.5572
73.2047
72.3346
67.3578
65.6389
60.7677
68.1511
77.375
76.168
81.8265
97.9548
60.7575
50.9431
50.2292
56.9118
69.1245
68.1352
77.4541
75.7792
90.018
88.6192
81.2673
94.2739
88.7671
86.4672
90.038
91.6217
95.8159
100.536
113.045
99.1833
68.2039
105.664
99.3402
135.839
131.259
120.578
116.762
112.49
113.866
111.734
113.317
113.116
110.193
115.136
101.063
106.712
84.1578
83.5442
83.2938
67.5691
67.0122
104.64
99.1104
78.4708
70.337
70.3817
102.064
80.5528
87.5209
92.6075
107.862
90.8065
103.696
88.547
84.3858
75.5476
88.1469
69.4563
70.8554
78.3824
67.8935
62.6719
58.2395
73.4923
71.1762
85.4909
81.5808
88.5165
62.2025
62.9975
78.4064
62.5062
58.8856
86.2674
78.4617
96.5354
59.7997
29.988
53.0323
54.7231
67.7395
71.1294
56.4306
53.2436
55.1537
65.1748
74.0456
77.8887
73.6048
76.0536
68.366
89.413
89.6041
77.5749
81.4352
84.1203
70.3636
63.1214
56.7978
80.2516
65.1497
61.6746
63.5078
63.9682
63.9873
75.7174
77.6102
22.5038
36.8184
64.4751
53.9948
59.1641
87.8298
74.9772
77.9517
71.8947
73.9139
67.1827
71.792
72.4658
72.4885
71.3698
71.5152
72.875
69.5271
70.2017
77.3929
75.1122
78.5692
76.4679
71.8152
79.4274
58.0259
65.5113
68.1015
59.0504
68.2518
32.5341
74.3066
69.069
85.7137
73.6239
93.6293
96.1517
88.3274
115.667
82.5574
83.6943
99.0911
101.82
110.168
93.0526
136.191
100.701
123.658
117.896
117.42
118.615
108.207
114.676
94.6438
107.287
74.1438
76.9629
71.3052
77.1187
82.908
79.631
78.9654
77.8927
87.9324
87.3009
82.8688
76.3397
76.1329
84.4196
72.8935
57.1557
59.3934
80.7598
76.1435
78.25
81.3508
82.7674
74.47
63.7279
67.1322
67.1891
75.8181
67.9956
57.0351
83.8663
78.9718
81.6009
96.8921
91.5833
86.7493
71.0411
52.3279
50.9842
58.5301
55.7709
57.6012
64.8863
33.69
66.5462
65.6982
80.116
91.08
64.3787
48.0638
50.607
43.5707
45.4446
62.4401
57.319
86.5229
76.7855
73.2928
78.6062
81.597
63.1513
51.1779
73.3953
73.0386
48.9504
51.5597
38.1592
74.8456
66.5564
65.8022
64.8114
58.3845
79.68
85.4368
35.1394
0
6.78454
65.6272
56.9646
59.2781
36.3952
40.6944
44.0612
42.4366
42.0766
43.3134
41.8811
62.874
61.7368
62.4239
60.9364
68.5453
79.7351
63.3084
61.9666
73.1704
72.3209
82.0881
82.8664
78.6676
83.6458
80.9797
61.63
69.9943
66.6904
58.1364
61.7746
66.847
67.2182
71.2468
58.3412
73.5499
86.4843
79.4001
110.733
91.3715
101.013
96.0946
104.305
101.193
90.287
109.3
92.3954
107.394
106.768
87.5633
101.58
124.425
94.8
89.9269
102.995
87.679
97.1172
82.9549
83.4748
84.1708
90.4303
91.4949
86.4312
91.2016
72.0963
73.9138
79.4934
80.5722
55.7567
55.1037
56.0767
80.3549
66.1403
73.1047
87.7513
84.7426
78.0941
77.8349
82.8782
82.2303
81.8901
87.339
84.0136
88.6868
72.7203
75.2433
76.3012
69.6091
80.1191
84.3822
88.9403
96.8076
92.2641
96.6143
96.1434
83.8339
100.383
84.905
82.4823
86.2428
52.0104
53.0353
44.3054
62.0767
52.2779
62.8212
64.4796
65.0846
71.9123
67.8149
81.5579
35.0569
43.8812
28.6084
81.1395
75.0467
74.6177
77.3831
46.5078
38.2954
41.4087
43.6023
50.2871
58.8845
56.1512
54.667
76.2593
72.7738
68.1079
36.2033
41.5736
47.5239
47.0628
45.4436
50.8655
40.6535
52.1642
53.8739
53.9723
52.7294
52.945
48.4057
56.1027
33.0635
30.1483
67.3539
58.7699
64.0768
65.6211
62.2083
71.736
55.1187
89.3111
75.9098
72.0456
66.4251
64.8135
61.0741
61.9857
66.6717
75.7098
69.1436
72.9879
68.3114
53.7052
76.7324
89.8904
106.543
86.1713
105.703
96.6051
102.609
105.799
65.2251
78.9355
84.4843
91.2797
99.9628
118.783
107.505
84.9416
94.9688
89.3942
77.708
93.5437
96.6156
84.3244
97.1467
87.7711
88.9843
85.196
82.9427
84.8219
81.0337
84.8491
86.9265
79.875
73.8064
78.2475
59.1457
58.9839
59.8348
92.2527
84.6081
80.7789
75.3555
78.0933
82.7753
79.5643
84.0689
85.6515
80.276
84.9698
79.6951
87.0792
91.5363
101.008
99.8658
105.193
97.7569
98.5792
99.9342
84.786
83.4703
83.296
88.4567
83.9481
72.5361
66.6358
69.871
80.299
83.0813
79.0562
78.2872
68.061
75.512
60.6141
60.745
35.4136
28.1281
53.3218
45.5921
52.0728
92.252
89.3898
58.8972
34.0558
48.9189
45.8555
56.1825
61.1919
69.8801
68.4157
53.2486
54.3746
68.9562
55.4392
64.8833
46.7124
50.6466
45.8572
57.5961
65.1689
59.3874
53.0192
59.1428
84.9669
77.2788
64.2533
61.0162
62.2187
68.5398
60.0811
50.9261
56.9493
59.1167
63.0561
74.4078
68.1359
69.5951
69.4043
89.2305
69.5457
68.9514
60.9994
62.0803
58.8813
60.1882
60.0522
69.8866
63.206
60.0351
58.4292
44.2249
47.0106
97.1167
80.623
92.2987
95.5167
83.8393
82.8793
73.7388
69.1782
79.8264
106.622
105.861
118.375
108.845
113.113
129.139
135.21
118.901
123.8
116.394
101.054
110.054
85.2772
91.3389
83.4848
89.7216
93.7397
84.2521
78.3061
78.8545
90.4339
79.3873
110.858
110.375
110.162
108.651
118.846
93.4589
77.7793
73.8043
85.3793
80.9594
89.0446
89.9223
98.2545
92.6488
101.308
92.765
96.2912
84.5998
90.7678
97.9047
87.3115
96.2018
97.6304
84.6586
82.3501
78.0538
86.9532
76.9672
61.5714
62.1001
67.5766
74.8867
82.5232
83.0961
84.9128
86.6114
82.9815
73.7275
70.529
73.7801
56.8082
58.8308
48.6835
46.0815
57.8817
53.6325
57.92
45.4631
68.3116
76.7947
61.5598
51.8868
62.5974
63.0556
58.8885
57.7552
46.2148
47.7808
44.4676
45.8972
44.747
45.0733
50.0099
46.4729
48.6034
57.4179
31.1466
20.249
25.5204
80.2361
72.5276
70.5508
89.9499
75.6863
65.0382
62.0507
56.7663
52.2542
51.2121
59.7968
63.1766
63.9474
60.8058
68.782
71.5533
68.6817
66.4945
60.9962
61.8505
58.1188
66.582
56.1582
52.6168
51.2885
83.5358
78.8319
74.028
79.5137
44.0009
41.0103
84.7608
72.2864
73.0429
69.1966
68.8822
66.46
94.6457
102.985
93.5195
89.4253
96.0457
95.5325
100.832
95.2741
99.5505
96.1192
89.2112
78.1224
76.6368
81.9047
77.1864
77.3564
82.7385
88.8763
85.7597
86.5556
87.2945
88.5136
78.2
106.995
91.1082
106.036
95.0078
103.696
80.7127
87.1425
105.369
102.962
101.608
113.448
112.431
101.575
104.046
103.422
91.6185
95.6653
89.5347
89.897
83.0947
82.6106
83.8131
84.1035
72.6476
75.7026
77.419
68.4243
77.1176
72.7552
76.2356
92.3961
51.6014
29.7367
88.1166
87.0164
79.1774
74.3324
77.1097
80.0734
60.2576
30.8397
44.74
55.6103
54.2032
52.3688
53.1121
56.2813
63.4444
71.5401
36.3912
36.7557
54.7753
58.1746
53.5558
49.2509
53.3337
45.8425
54.2607
50.9794
58.2656
46.9514
49.8127
49.8729
61.1678
62.2818
91.8622
93.3529
88.3582
56.4442
64.3844
39.4413
57.157
81.2206
65.0719
66.2
56.8906
55.1687
49.3814
48.3011
45.1351
67.3841
61.6917
64.1276
58.3779
75.7956
70.6892
74.0212
68.0934
70.3541
72.6461
69.9267
44.4457
48.8352
58.702
88.9761
88.51
45.8015
56.1018
50.2377
47.9815
89.8758
80.0859
77.4109
78.7034
70.9797
76.9343
98.9954
94.0186
89.4537
102.79
121.307
111.588
123.322
131.378
114.701
100.463
105.228
90.1
89.1669
97.4376
91.3782
97.2165
92.1245
99.092
81.8975
74.6587
70.3091
68.3136
84.1899
90.6468
103.959
95.3807
86.1839
90.4364
93.9009
97.8289
105.949
96.6171
81.5929
86.8851
86.8453
103.584
108.355
111.538
106.638
102.422
103.312
102.89
88.5713
91.2774
94.7576
92.2718
95.0358
75.9783
78.2215
77.1583
79.1655
95.6656
81.9221
57.6826
59.3906
58.6495
94.7428
88.1585
92.0196
80.6885
42.682
34.8485
53.5233
53.4957
61.2163
53.1911
54.1109
56.6776
56.6951
74.1417
60.8524
54.0546
47.6167
60.7922
54.592
55.086
30.0494
34.9144
53.3039
44.9822
59.0169
55.0723
58.1081
48.0866
49.9986
26.1277
48.433
57.6095
86.8528
99.0263
93.7361
69.9483
64.7724
57.4806
60.453
50.1554
57.1788
54.3533
55.7156
49.7703
50.9244
50.2158
51.845
48.7989
54.5446
52.9071
60.9913
66.0271
57.3632
45.4076
43.279
43.9667
40.7302
49.1253
42.221
31.7886
50.9008
46.3103
50.3218
55.5291
56.2223
54.4761
57.8581
63.748
69.6487
70.5908
78.5547
76.8216
81.7432
81.4454
100.924
111.01
73.1531
82.601
91.3716
48.9702
100.927
124.324
99.3006
92.402
102.335
90.8323
84.3109
92.6292
92.7333
93.9754
90.2751
93.8092
91.797
92.6907
89.6589
98.545
113
72.91
79.1791
84.6772
101.118
99.7148
81.3626
72.7595
90.6268
89.258
91.5769
122.754
114.685
121.277
133.984
129.169
117.851
131.975
120.631
94.2401
92.7318
97.1974
85.6612
83.015
82.7274
77.64
73.4901
74.4361
63.997
59.8668
59.543
65.1021
69.1878
68.7703
54.5555
25.6226
70.5952
68.9832
66.1033
69.9883
62.3559
58.8979
62.1904
59.8336
62.9044
66.2383
68.5254
69.1946
63.5031
60.8586
56.8433
53.5525
49.6347
42.374
40.6484
33.3792
29.7333
51.2581
49.5448
64.5448
59.5044
66.1433
44.5711
34.2183
31.9496
64.247
79.3362
65.507
71.673
54.3982
55.8304
37.6213
41.1667
40.2829
34.7041
34.2432
43.0964
47.0847
40.4156
39.2528
33.7981
37.0084
35.6612
28.5702
31.796
29.9342
33.9239
26.4811
30.9671
40.7943
34.5092
32.1141
30.9135
29.1097
28.5007
37.8863
43.0114
39.7331
42.1498
46.9021
55.7273
56.3237
63.2727
69.6214
63.9384
73.7968
65.7378
78.7851
85.6046
100.59
80.033
64.2587
30.5327
77.4049
114.674
79.0191
66.3386
70.078
80.7303
91.9421
97.3195
96.8408
74.8048
93.3211
95.3277
94.2305
95.2673
113.91
90.9713
76.7493
87.1567
88.3503
98.2368
58.184
83.5393
107.771
98.583
118.246
116.552
110.921
138.357
119.419
133.074
130.174
120.776
152.988
123.238
108.814
97.5145
92.0869
93.0574
87.2712
71.1549
74.5128
64.4369
61.1735
58.033
60.1084
66.5496
66.5368
74.0785
72.2192
92.7169
99.906
89.1123
82.6434
83.4796
72.5254
73.7483
64.2665
65.5596
60.5372
57.7612
57.2868
52.5232
52.6898
54.2586
46.8419
54.7774
44.338
46.0491
43.4781
38.5264
40.6534
47.397
45.3552
46.1876
74.2782
70.5413
75.668
76.05
74.1917
73.893
79.1378
68.1486
68.6511
53.5079
53.6382
51.8491
28.3524
29.7709
23.2703
21.2498
7.20437
9.5928
26.7376
24.0785
24.9294
24.0094
44.7925
39.1816
45.0184
31.9254
29.6333
32.7843
53.1346
52.2217
32.1821
30.2528
29.6782
29.9336
26.5814
23.5117
23.1953
41.9546
44.8029
38.9486
36.1187
41.2484
46.1824
44.9198
50.8572
58.8178
63.7759
63.3212
73.3292
71.1165
70.1343
82.2693
60.7393
69.3696
63.7062
85.3997
72.1758
83.5167
74.4746
93.5296
67.678
67.2888
60.9535
63.785
90.5417
91.3547
94.9428
98.9576
102.902
85.2106
92.8415
88.2446
103.016
119.038
106.346
108.207
112.448
107.922
100.482
97.7232
114.672
123.462
75.1827
59.8954
63.5204
52.2011
131.057
133.418
114.192
111.38
113.284
98.7928
82.8689
77.1165
75.0315
69.9096
67.9982
64.9737
72.2664
72.9606
75.7145
73.679
87.0021
82.0061
88.3241
106.097
90.0833
101.384
89.8506
77.3379
81.2754
71.4538
64.5113
66.5124
58.7604
54.0197
57.5299
38.0275
47.1585
24.813
50.976
50.4924
47.6599
48.485
47.4114
31.8763
40.6418
45.7535
47.5323
80.4587
72.9605
75.246
86.083
76.7017
70.5963
71.7066
60.1401
68.7117
51.2351
52.8269
46.4192
48.7243
50.23
38.7809
54.7984
56.935
60.8889
56.2661
59.6196
44.5251
51.4683
44.549
39.6587
45.0229
40.1525
39.4705
38.7745
34.973
33.9362
34.9319
64.1403
54.6267
48.4763
40.9043
50.1177
27.8313
44.4062
38.9161
31.0142
30.8628
32.1336
27.3932
27.137
35.5118
32.4409
56.2173
52.0134
69.4997
62.218
63.3365
53.9756
52.4715
49.8124
54.8188
82.9362
98.7029
77.0244
39.2576
27.3203
48.6243
74.7686
65.1842
94.586
102.775
75.6665
92.8415
78.2299
76.0593
78.6734
82.515
95.9614
122.877
110.71
99.2755
104.392
108.759
95.1187
105.289
130.155
116.648
87.4479
90.1769
80.1801
83.3331
127.597
135.014
106.501
109.638
110.355
94.2822
98.2391
94.4794
78.0384
80.5524
78.8273
77.705
80.6
76.9142
74.9342
81.9704
79.0646
81.3335
92.5515
89.615
75.2623
73.2809
20.4231
0
60.8239
54.0852
62.1568
34.6946
23.2884
29.7238
26.1155
25.498
29.4604
0
31.0112
47.0725
45.8352
49.021
45.5424
46.3297
33.4015
47.0223
51.2412
47.989
55.2174
54.6615
64.955
76.0748
67.8009
63.3315
51.968
52.6418
49.0408
53.0708
43.5626
45.6765
49.7979
52.7868
58.0228
53.029
60.411
58.0928
63.3361
62.3867
72.4704
48.5609
13.5256
13.5169
49.8649
46.453
57.3768
44.1068
62.7654
60.4026
68.3024
62.683
63.9675
53.829
50.4311
60.9572
38.125
26.2378
32.7416
30.8019
24.2204
28.3187
27.6289
29.381
27.8356
37.1816
36.8525
55.1118
64.9514
54.0428
44.3777
53.0588
50.9813
54.4802
99.4477
72.3448
60.7921
65.4733
60.9357
52.4944
66.5778
63.5125
73.9246
60.5429
45.5341
55.4596
0
0
82.4283
72.2653
67.5309
87.5979
78.4316
75.3045
92.1705
99.7379
94.2701
102.772
123.344
144.483
128.628
145.431
139.435
126.882
131.478
141.666
124.96
115.078
88.2642
83.4501
88.4557
97.2401
85.3037
84.1708
78.7079
91.6759
75.5923
77.4212
74.6075
67.7947
69.2544
63.9882
83.2753
57.8756
68.0029
61.8806
62.1966
56.3218
52.3014
43.8816
40.2732
48.5526
56.0301
53.1348
22.2157
23.3138
29.3467
40.1035
43.3706
42.2869
41.6038
34.2599
7.39217
21.5316
34.9602
35.0668
45.5611
50.1467
28.9674
52.6091
60.2369
70.873
87.3087
79.2584
53.4813
46.7566
45.0265
44.9307
53.0843
58.4482
72.9574
59.1293
53.327
69.1759
87.5091
72.6878
63.4061
64.7044
72.2179
78.9241
42.1852
26.6955
27.9988
49.6586
65.375
71.1795
43.4765
39.3162
35.7997
69.7858
57.6932
59.7242
49.0884
46.8093
40.8039
41.3766
26.5972
26.4794
25.9199
28.8951
42.9449
34.8919
39.2843
39.9382
38.4239
40.7757
25.7814
46.0504
40.9882
44.6724
32.9568
23.9496
70.7891
83.3511
81.2576
85.8505
49.092
52.4465
120.593
112.911
113.2
123.419
119.507
120.008
114.242
101.899
83.898
86.1229
71.7399
66.1315
72.9441
76.6144
91.2555
93.4503
102.617
99.9975
111.523
109.141
112.173
118.228
116.892
110.705
113.385
107.788
99.2785
106.963
101.153
95.2692
103.345
96.851
88.7017
94.1499
83.61
80.1328
67.7731
59.0199
58.2257
56.352
53.4772
56.1185
55.1617
54.8956
58.0179
43.5865
41.2099
50.3282
53.5091
58.3897
60.6959
54.8501
48.0532
52.5194
42.4985
47.5275
35.1527
33.5724
46.6173
48.975
57.0709
60.8056
48.5867
22.502
23.9772
30.4926
31.1632
34.151
38.9671
31.785
0
40.819
80.4448
75.4512
70.3157
63.1562
56.8714
52.6953
58.7927
61.9058
74.7352
69.4509
55.0891
55.1178
75.9173
73.6071
83.3314
49.4368
23.5248
37.6486
42.4319
45.1989
23.2745
21.7581
33.2678
30.6293
38.8127
36.959
41.8293
34.6381
46.4424
48.558
42.2558
40.4012
44.2722
38.7976
46.5502
22.2582
17.375
16.3556
23.5175
34.9362
52.0398
43.8837
49.1974
53.348
51.4953
31.7416
30.8001
30.4426
49.9948
49.8141
87.5489
87.6406
93.7385
86.9657
83.7735
83.543
105.508
115.896
105.63
101.185
109.115
102.889
88.1096
90.6559
70.8244
70.607
103.263
109.573
96.106
104.743
130.788
111.077
126.602
106.251
100.345
102.417
97.7082
104.718
101.985
106.958
103.473
100.398
97.8462
92.7058
98.6744
95.7476
98.015
95.3125
87.2808
73.4027
74.7905
65.4798
63.2887
75.138
60.6192
63.0134
60.9946
46.9009
53.1029
53.0501
49.056
51.7095
60.9142
53.7616
60.8913
56.4154
53.4377
55.8463
54.0282
39.3515
36.3147
33.2885
12.6446
12.0442
29.9685
29.1533
47.1622
42.4376
57.0888
61.1892
53.8664
48.2608
53.4548
32.8709
69.0666
73.6668
64.7232
44.6467
48.3207
82.1036
62.1374
64.3043
58.2387
56.1433
68.0086
63.8859
76.4726
74.0943
25.7896
19.8642
52.4228
82.3152
71.6786
76.4492
40.636
35.3593
41.617
25.851
35.2471
33.6009
16.1661
22.6139
34.153
40.5041
36.3785
39.8103
30.882
41.5385
57.5938
48.8274
45.9678
44.5862
42.6939
46.5046
11.4389
13.9649
18.4938
20.2952
31.7625
47.6888
39.6803
46.6618
43.959
49.1439
32.8764
29.306
35.1202
31.7993
77.2054
82.4509
91.3619
87.145
91.7001
87.4068
107.561
92.3037
98.6381
94.0735
103.885
77.1485
89.5872
79.5203
60.9269
84.6809
88.2813
89.7827
92.6002
100.817
117.145
119.429
106.227
116.975
95.5147
103.406
99.938
103.189
100.557
98.8325
93.9043
88.8051
84.3018
85.0824
85.0993
75.4164
85.0589
64.1183
63.4611
67.9645
62.7407
73.409
63.7914
67.6943
62.9289
74.8903
55.8144
66.3194
50.7938
84.8701
69.6092
73.2571
72.2588
75.4926
62.7661
70.9134
55.9503
37.6093
40.3981
30.4648
31.9872
25.554
21.9642
21.3337
0
0
18.4753
41.1917
38.4123
52.2756
46.219
51.3242
51.8581
50.1066
34.0088
58.9043
51.3993
55.7324
39.2488
44.7354
41.406
35.7961
51.7199
49.1426
64.0657
67.9218
69.7375
80.0279
37.4248
27.4347
33.4968
57.2342
52.0915
60.8139
32.1416
40.7396
39.7185
47.2451
31.5612
0
26.1369
26.1371
36.6593
36.4753
43.93
17.17
38.4147
38.9465
50.6783
48.3351
53.9353
30.9074
36.639
43.0994
0
0
0
0
11.234
25.966
19.8304
20.1175
20.3575
22.9442
31.8309
28.6463
26.1518
27.3592
72.4746
81.2056
93.205
86.1841
88.492
81.8332
73.5801
80.5215
72.5109
70.4758
72.8433
71.6956
80.639
81.8848
80.2832
89.2078
116.372
124.746
123.665
115.534
124.751
112.304
115.933
114.694
95.7321
106.109
96.1292
102.914
99.8707
111.295
98.8355
87.9537
89.1536
72.0097
73.0247
66.4079
66.3607
75.5723
71.3187
74.8375
68.4431
77.421
58.2112
63.9901
54.608
29.8478
66.9256
72.5261
89.1418
78.8728
77.9853
87.2317
75.8751
86.3971
68.7936
18.599
16.4243
35.0801
43.1839
46.6589
28.979
15.2299
17.2065
15.4036
26.6332
24.538
29.129
21.4286
20.2394
33.9053
34.6572
31.281
39.0168
36.67
27.4972
25.6085
24.013
26.5735
17.7167
23.0848
27.1885
28.63
48.8701
49.0184
49.7533
59.7113
61.9149
75.4597
51.6411
57.6318
53.2144
42.4036
41.2595
13.5896
19.2999
32.0652
38.2173
34.608
34.3291
40.5267
53.2255
49.0075
53.8197
39.786
43.2956
53.425
56.3599