# vtk DataFile Version 3.0
vtk output
ASCII
DATASET POLYDATA
POINTS 24578 float
-151.53 81.83 75.23
-146.76 79.98 77.9
-147.26 82.51 76.57
-151.22 79.35 76.36
-146.3 77.32 78.47
-150.76 76.75 77.01
-146.01 74.82 79.56
-150.4 74.19 77.98
-145.43 72.07 79.86
-149.95 71.56 78.66
-145.02 69.6 80.58
-149.55 69.11 79.46
-144.64 67.21 81.53
-149.14 66.64 80.2
-144.27 64.77 82.34
-148.68 64.12 80.8
-144.06 62.18 83.1
-148.26 61.63 81.51
-143.83 59.57 83.96
-148.2 59.14 82.73
-143.54 56.98 84.63
-148.02 56.58 83.6
-143.3 54.28 84.95
-147.52 53.77 83.62
-142.71 51.53 84.98
-147.03 50.98 83.68
-142.34 49.05 85.71
-146.66 48.52 84.06
-142.24 46.57 86.6
-146.26 46.05 84.34
-145.97 43.63 84.94
-141.82 44.09 87.11
-141.56 41.44 87.04
-145.67 41.21 85.5
-140.98 38.76 87.5
-145.29 38.66 85.7
-140.75 36.16 87.85
-144.89 36.1 85.85
-144.62 33.53 86.3
-140.46 33.57 88.45
-140.13 30.94 88.56
-144.22 30.94 86.41
-143.81 28.2 86.49
-139.84 28.2 88.9
-143.44 25.45 86.68
-139.6 25.51 89.44
-143.18 22.67 87.12
-139.22 22.78 89.44
-142.9 19.88 87.51
-138.79 20.04 89.71
-142.6 17.15 87.83
-138.39 17.32 89.75
-137.91 14.61 89.73
-142.25 14.42 88.03
-141.99 11.68 88.46
-137.6 11.89 89.94
-141.61 8.95 88.57
-137.22 9.16 90.05
-141.13 6.27 88.48
-136.86 6.45 90.3
-140.68 3.58 88.47
-136.37 3.76 90.16
-140.25 0.89 88.51
-135.88 1.07 90.03
-139.71 -1.79 88.26
-135.64 -1.76 90.02
-135.64 -4.55 89.75
-140 -4.44 88.09
-135.69 -7.09 89
-140.34 -7.12 88.03
-135.79 -9.62 88.23
-140.37 -9.69 87.25
-135.84 -12.19 87.54
-140.43 -12.27 86.54
-135.99 -14.75 87
-140.5 -14.79 85.8
-136.21 -17.35 86.64
-140.62 -17.33 85.19
-136.42 -19.93 86.21
-140.85 -19.94 84.82
-136.49 -22.42 85.34
-140.79 -22.34 83.7
-136.45 -24.91 84.43
-140.78 -24.79 82.73
-136.55 -27.44 83.74
-140.84 -27.3 81.99
-136.57 -29.97 82.98
-140.97 -29.86 81.42
-136.73 -32.54 82.43
-141.02 -32.36 80.63
-136.76 -35.12 81.64
-141.09 -34.97 79.94
-141.32 -37.69 79.69
-136.83 -37.72 80.96
-141.45 -40.33 79.13
-136.9 -40.34 80.32
-137.11 -43 79.41
-141.48 -42.91 78.35
-141.57 -45.38 77.61
-137.04 -45.54 78.64
-141.59 -47.8 76.7
-137.03 -47.91 77.56
-141.86 -50.43 76.49
-137.15 -50.39 76.9
-141.9 -52.84 75.63
-137.27 -52.84 76.11
-141.91 -55.11 74.4
-137.53 -55.19 75.26
-137.48 -57.49 74.21
-141.9 -57.35 73.07
-142.03 -59.74 72.14
-137.7 -59.92 73.43
-142.25 -62.22 71.44
-137.97 -62.48 72.92
-142.57 -64.67 70.67
-138.15 -65.14 72.4
-142.87 -67.1 69.86
-138.34 -67.41 71.12
-143.16 -69.56 69.09
-138.58 -69.8 70.17
-143.42 -71.97 68.22
-138.72 -72 68.84
-143.42 -74.03 66.78
-138.71 -74.17 67.59
-143.52 -76.26 65.69
-138.9 -76.5 66.65
-143.64 -78.59 64.8
-139.03 -78.91 65.88
-143.64 -80.66 63.43
-139.36 -81.09 64.3
-142.41 80.53 78.87
-142.88 83.09 77.59
-141.83 77.87 79.86
-141.49 75.33 80.8
-140.97 72.61 81.19
-140.47 70.13 81.77
-140.01 67.69 82.47
-139.94 65.21 83.59
-139.84 62.72 84.64
-139.44 60.04 85.13
-139.12 57.42 85.86
-138.88 54.8 86.42
-138.56 52.14 86.78
-138.19 49.56 87.25
-137.83 46.99 87.76
-137.58 44.31 88.01
-137.31 41.63 88.23
-137.03 38.95 89.21
-136.57 36.22 89.77
-136.22 33.57 90.06
-135.88 30.91 90.36
-135.74 28.24 91.1
-135.47 25.56 91.56
-134.94 22.88 91.41
-134.47 20.19 91.43
-134.08 17.49 91.57
-133.61 14.8 91.52
-133.09 12.1 91.2
-132.71 9.37 91.23
-132.3 6.67 91.32
-131.94 3.96 91.53
-131.76 1.11 91.67
-131.5 -1.71 91.62
-131.31 -4.41 90.89
-131.1 -7.09 90.13
-131.35 -9.7 89.79
-131.55 -12.29 89.33
-131.63 -14.81 88.62
-131.74 -17.34 87.96
-131.85 -19.85 87.19
-132.06 -22.42 86.66
-132.19 -25.02 86.17
-132.25 -27.57 85.48
-132.26 -30.09 84.65
-132.44 -32.72 84.26
-132.56 -35.36 83.72
-132.63 -37.97 83.04
-132.75 -40.58 81.94
-132.83 -43.16 80.72
-132.77 -45.71 79.94
-132.75 -48.3 79.25
-132.77 -50.64 78.12
-132.8 -52.99 77
-132.95 -55.32 76.2
-133.13 -57.69 75.53
-133.33 -60.11 74.69
-133.5 -62.48 73.72
-133.64 -65.09 73
-133.72 -67.59 72.04
-133.86 -69.81 70.74
-134.01 -72.03 69.43
-134.18 -74.44 68.63
-134.35 -76.86 67.84
-134.77 -79.33 66.76
-135.07 -81.54 65.2
-138.04 81.11 79.93
-138.51 83.66 78.64
-137.48 78.45 80.95
-136.81 75.7 81.58
-136.53 73.2 82.68
-136.2 70.85 83.66
-136.01 68.35 84.53
-135.78 65.76 85.17
-135.49 63.19 85.82
-135.19 60.56 86.38
-134.98 57.99 87.45
-134.76 55.37 88.25
-134.53 52.77 88.88
-134 50.11 89.1
-133.65 47.3 89.03
-133.3 44.56 89.42
-133.29 41.92 90.17
-132.89 39.2 91
-132.5 36.43 91.58
-132.05 33.68 92.21
-131.7 30.98 92.36
-131.44 28.31 92.66
-131.04 25.67 93.02
-130.62 23.02 93.01
-130.15 20.36 93.11
-129.82 17.66 93.35
-129.27 14.97 93.05
-128.74 12.27 92.73
-128.4 9.55 92.87
-127.96 6.85 92.86
-127.84 4 93.22
-127.59 1.17 93.17
-127.27 -1.64 92.97
-127.25 -4.36 92.57
-127.15 -7.08 92.07
-127.17 -9.83 91.83
-127.29 -12.38 91.16
-127.29 -14.86 90.23
-127.44 -17.42 89.6
-127.57 -19.97 88.96
-127.76 -22.53 88.35
-127.82 -25.1 87.72
-127.85 -27.64 86.95
-127.95 -30.27 86.46
-128.2 -32.95 86.24
-128.25 -35.54 85.49
-128.5 -38.26 84.8
-128.59 -40.83 83.55
-128.62 -43.36 82.3
-128.5 -45.86 81.36
-128.57 -48.51 80.64
-128.51 -50.96 79.6
-128.63 -53.39 78.68
-128.82 -55.89 78.24
-129.15 -58.39 77.85
-129.06 -60.46 76.29
-128.99 -62.4 74.44
-128.98 -64.79 73.19
-129.01 -67.15 71.96
-128.97 -69.58 70.84
-129.28 -72.05 69.98
-129.48 -74.55 69.36
-130.01 -77.21 68.65
-130.42 -79.71 67.63
-130.79 -82.03 66.21
-133.82 81.84 81.46
-134.36 84.47 80.38
-133.19 79.09 82.22
-132.49 76.28 82.7
-131.95 73.65 83.71
-131.93 71.29 85
-131.87 68.9 86.17
-131.5 66.27 86.57
-131.13 63.64 86.94
-130.87 61.02 87.58
-130.68 58.45 88.47
-130.46 55.86 89.34
-130.18 53.24 90.02
-129.88 50.44 90.31
-129.64 47.69 90.79
-129.42 44.94 91.36
-129.23 42.2 92.03
-128.71 39.37 92.41
-128.45 36.65 93.48
-128.03 33.86 94.03
-127.47 31.03 94.24
-127.19 28.41 94.71
-126.88 25.78 95.12
-126.32 23.16 94.88
-125.8 20.53 94.74
-125.36 17.84 94.64
-124.86 15.16 94.43
-124.49 12.44 94.52
-124.2 9.71 94.8
-123.95 6.88 94.78
-123.68 4.05 94.73
-123.4 1.23 94.62
-123.18 -1.6 94.69
-123.37 -4.41 94.84
-123.31 -7.12 94.32
-123.16 -9.79 93.63
-122.95 -12.42 92.76
-123.09 -14.99 92.12
-123.27 -17.57 91.56
-123.4 -20.13 90.9
-123.5 -22.66 90.14
-123.53 -25.22 89.42
-123.57 -27.78 88.7
-123.68 -30.42 88.22
-123.74 -33.02 87.62
-123.94 -35.69 86.77
-124.14 -38.36 85.91
-124.27 -40.96 84.88
-124.51 -43.67 84.17
-124.44 -46.18 83.04
-124.36 -48.68 81.9
-124.32 -51.14 80.87
-124.34 -53.66 80.01
-124.65 -56.22 79.72
-124.85 -58.64 79.12
-124.76 -60.62 77.46
-124.57 -62.46 75.52
-124.49 -64.69 73.94
-124.51 -67.1 72.74
-124.57 -69.65 71.8
-124.65 -72.26 70.99
-125.14 -74.86 70.13
-125.57 -77.36 69.04
-126.01 -79.84 67.96
-126.39 -82.16 66.58
-129.58 82.52 82.46
-130.23 85.32 82
-128.9 79.77 83.09
-128.4 77.11 83.84
-127.98 74.41 84.96
-127.56 71.77 85.9
-127.33 69.24 86.57
-127.15 66.76 87.43
-126.86 64.14 88.01
-126.52 61.49 88.81
-126.36 58.96 89.84
-126.14 56.38 90.8
-125.97 53.53 91.15
-125.51 50.64 91.5
-125.42 47.93 92.31
-125.22 45.19 93.14
-125.05 42.45 93.81
-124.64 39.66 94.38
-124.31 36.88 95.2
-123.77 34.05 95.42
-123.26 31.23 95.69
-122.78 28.52 96.11
-122.44 25.87 96.38
-121.98 23.27 96.26
-121.42 20.65 96.06
-121.04 17.96 96.08
-120.68 15.29 96.36
-120.38 12.57 96.56
-120.17 9.75 96.72
-119.91 6.93 96.66
-119.55 4.12 96.37
-119.27 1.3 96.28
-119.07 -1.54 96.32
-119.25 -4.36 96.51
-119.22 -7.1 96.08
-119.04 -9.77 95.31
-119 -12.5 94.8
-118.91 -15.21 94.19
-119.08 -17.79 93.59
-119.2 -20.38 92.98
-119.3 -22.91 92.18
-119.31 -25.47 91.43
-119.31 -28 90.63
-119.33 -30.55 89.87
-119.45 -33.15 88.84
-119.6 -35.8 87.91
-119.83 -38.5 87.17
-120.05 -41.2 86.43
-120.26 -43.87 85.57
-120.32 -46.42 84.63
-120.24 -48.94 83.59
-120.24 -51.46 82.7
-120.29 -53.99 81.83
-120.1 -56.26 80.6
-120.22 -58.48 79.45
-120.33 -60.66 78.2
-120.24 -62.81 76.84
-120.26 -65.2 75.6
-120.18 -67.48 74.2
-120.23 -70.02 73.25
-120.52 -72.67 72.16
-120.81 -75.19 70.96
-121.18 -77.58 69.65
-121.52 -79.9 68.24
-121.92 -82.27 66.97
-125.25 83.17 83.41
-125.88 85.88 82.84
-124.6 80.45 83.94
-124.22 77.72 84.75
-123.94 75.09 85.93
-123.46 72.43 86.81
-122.93 69.71 87.46
-122.73 67.14 88.15
-122.59 64.64 89.06
-122.25 62 89.9
-121.95 59.4 90.9
-121.96 56.7 91.92
-121.73 53.8 92.2
-121.47 50.99 93.04
-121.27 48.22 94.07
-121.07 45.45 94.8
-120.88 42.69 95.58
-120.53 39.9 96.26
-120.06 37.06 96.59
-119.52 34.23 96.77
-119.19 31.45 97.53
-118.64 28.71 97.7
-118.07 25.97 97.81
-117.65 23.36 97.86
-117.2 20.75 97.82
-116.76 18.09 97.81
-116.45 15.42 98.16
-116.25 12.62 98.27
-115.94 9.82 98.09
-115.72 7.01 98.16
-115.43 4.19 98.08
-115.24 1.34 98.13
-115.02 -1.5 98.11
-115.03 -4.27 97.86
-115.05 -7.04 97.62
-115.01 -9.78 97.12
-114.91 -12.5 96.46
-114.83 -15.21 95.87
-114.79 -17.94 95.36
-114.95 -20.55 94.79
-115.09 -23.14 94.17
-115.09 -25.69 93.41
-115.09 -28.25 92.66
-115.19 -30.82 91.55
-115.34 -33.43 90.58
-115.56 -36.16 89.86
-115.65 -38.76 88.81
-115.73 -41.32 87.6
-115.89 -43.96 86.62
-115.94 -46.5 85.75
-115.97 -49.02 84.82
-116.06 -51.62 84.1
-116.16 -54.22 83.41
-116 -56.46 81.98
-115.78 -58.59 80.34
-115.73 -60.7 78.9
-115.82 -63.01 77.89
-115.91 -65.56 77.02
-115.85 -67.86 75.66
-116.07 -70.39 74.35
-116.45 -73.24 73.66
-116.73 -75.78 72.45
-116.87 -78.01 70.66
-117.13 -80.1 68.85
-117.46 -82.37 67.36
-120.93 83.58 83.84
-121.35 86.18 83.25
-120.43 80.92 84.76
-120.24 78.29 85.68
-119.85 75.73 86.84
-119.39 73.08 87.68
-118.97 70.39 88.56
-118.52 67.71 89.38
-118.27 65.1 89.93
-117.89 62.43 90.71
-117.77 59.68 91.68
-117.62 56.89 92.64
-117.53 54.11 93.38
-117.25 51.28 94.27
-116.99 48.44 95.07
-116.61 45.56 95.63
-116.37 42.76 96.18
-116.01 39.98 96.85
-115.62 37.17 97.41
-115.23 34.39 98.02
-114.97 31.62 98.96
-114.53 28.91 99.33
-113.9 26.15 99.26
-113.4 23.47 99.53
-113.04 20.85 99.72
-112.61 18.2 99.71
-112.34 15.45 99.77
-112.11 12.66 99.75
-111.7 9.9 99.43
-111.54 7.08 99.65
-111.31 4.26 99.65
-111.1 1.42 99.6
-110.91 -1.42 99.76
-110.84 -4.17 99.3
-110.76 -6.92 98.71
-110.8 -9.71 98.47
-110.76 -12.46 97.96
-110.67 -15.19 97.39
-110.65 -17.93 96.92
-110.56 -20.62 96.27
-110.66 -23.19 95.59
[...]
CELL_DATA 49152
SCALARS Temperature float 1
LOOKUP_TABLE default
1.39768
1.28668
1.02245
0.403524
0.269594
0.20216
0.690835
0.687667
0.674198
1.08382
1.00414
0.987194
0.918623
0.678434
0.141264
0.176924
0.197618
0.668599
1.12032
1.50339
1.0846
0.676077
0.139409
0.115084
0.127431
0.113889
0.146053
0.145284
0.158557
0.138163
0.099916
0.0998661
0.0475315
0.0493455
0.0752766
0.0720543
0.0921698
0.101993
0.0639812
0.0608042
0.0487095
0.0856137
0.0723514
0.0939367
0.0852911
0.0326795
0.0721982
0.0554797
0.0612217
0.00962096
0.0134883
0.0117503
0.0455603
0.00179893
0.00108005
0.00106399
0.000367385
0.00102784
0.00313873
0.000332712
0.000175881
0.000302278
0.000266473
0.000319804
0.000978342
0.000803071
2.32287e-05
5.63569e-05
4.71049e-05
4.32419e-05
4.28922e-05
3.99067e-05
4.06244e-05
3.03221e-05
3.78639e-05
2.43528e-05
3.06787e-05
3.20286e-05
5.98367e-06
4.39624e-05
3.09963e-05
6.76837e-06
1.02522e-05
1.17602e-05
1.02471e-05
1.32844e-05
1.42486e-05
1.05442e-05
1.03906e-05
1.28274e-05
1.91638e-05
4.59569e-06
1.21677e-05
5.10459e-06
2.56434e-06
6.46933e-06
6.50653e-06
1.73259e-06
2.27216e-06
1.67884e-06
1.99503e-06
7.56148e-07
9.97685e-07
6.28784e-07
6.07731e-07
4.31677e-07
3.13704e-07
2.05292e-07
2.2263e-07
2.74046e-07
3.2454e-07
4.15784e-07
3.02143e-07
4.17024e-07
2.17093e-07
6.75551e-08
8.0159e-08
1.9335e-07
2.15687e-07
9.83816e-07
1.08151e-06
7.48644e-07
5.83715e-07
3.68149e-07
3.52132e-07
3.41645e-07
2.07097e-07
2.24025e-07
1.16733
1.2349
1.55139
1.24621
0.561128
0.915008
1.42068
0.267276
0.204885
0.22952
0.20148
0.249158
0.245345
0.972213
0.709148
0.183963
0.675648
1.08424
1.04292
0.986003
0.0621586
0.16583
0.137783
0.181594
0.186623
0.135768
0.225093
0.747442
0.741067
0.801899
0.0632629
0.0892397
0.0428455
0.0616976
0.0781703
0.092577
0.0972657
0.0251571
0.0303274
0.0288685
0.055651
0.0954564
0.0964905
0.0859254
0.0106413
0.00495983
0.0064127
0.00293673
0.00140291
0.00681769
0.00675959
0.00727442
0.000460301
0.000869051
0.000835319
0.00101175
0.00108839
0.000877879
0.000731706
0.000831063
0.00039558
0.000997589
0.000657357
0.000195866
0.000149758
0.000119232
5.81617e-05
5.29244e-05
5.61324e-05
2.93745e-05
4.06884e-05
1.27759e-05
1.11161e-05
2.67124e-05
1.11569e-05
3.48834e-05
1.14754e-05
3.26475e-05
1.39583e-05
7.8397e-06
1.24491e-05
2.99736e-05
6.99421e-06
8.72615e-06
6.4063e-06
7.57246e-06
1.40304e-05
1.50298e-05
1.5274e-05
1.3442e-05
1.46479e-05
1.43282e-05
4.16311e-06
1.16354e-05
3.16876e-06
2.50171e-06
2.04581e-06
1.74698e-06
1.82144e-06
2.00144e-06
1.83963e-06
9.52358e-07
9.30327e-07
4.53436e-07
4.45285e-07
4.3412e-07
3.57445e-07
3.42205e-07
3.30826e-07
2.91624e-07
4.04367e-07
3.67713e-07
4.89604e-07
6.45163e-07
8.18006e-07
5.12078e-07
5.26418e-07
8.92492e-07
8.65463e-07
6.81612e-07
6.97826e-07
3.65488e-07
3.20873e-07
2.92046e-07
2.87238e-07
3.68348e-07
2.76553e-07
2.36499e-07
0.931468
0.967021
1.173
1.20837
1.7403
1.89861
1.56147
0.534052
0.219802
0.239857
0.244845
0.225931
0.217001
0.234141
0.264115
0.916717
1.41144
1.20743
0.894071
0.208236
0.204326
0.192165
0.180072
0.189545
0.192334
0.173139
0.173401
0.108994
0.0896973
0.122648
0.140257
0.127093
0.15106
0.154613
0.104113
0.110869
0.0615468
0.111149
0.07679
0.0506651
0.0902214
0.015826
0.0292566
0.0177457
0.0105527
0.00593238
0.00116888
0.000875166
0.00102095
0.00135571
0.00497132
0.00111651
0.000709098
0.000637146
0.000549668
0.00075572
0.00066459
0.000684801
0.000783939
0.00208492
0.00198192
0.00140228
0.00122089
0.000497383
7.95436e-05
0.000127435
5.61496e-05
2.37415e-05
4.32421e-05
4.14084e-05
1.3008e-05
1.91846e-05
8.39764e-06
7.15316e-06
6.96229e-06
7.91572e-06
7.45041e-06
7.25878e-06
7.95859e-06
7.24583e-06
6.4486e-06
1.18655e-05
5.96317e-06
8.70865e-06
1.14692e-05
6.82516e-06
1.32189e-05
1.66398e-05
1.17196e-05
1.34351e-05
1.19469e-05
1.17717e-05
3.24301e-06
2.95998e-06
2.63172e-06
2.57862e-06
2.30051e-06
1.78893e-06
1.58446e-06
1.50224e-06
1.26299e-06
1.27649e-06
1.23166e-06
1.01905e-06
1.08528e-06
1.39806e-06
1.16794e-06
1.47348e-06
2.49138e-07
2.10962e-07
2.22437e-07
3.91104e-07
3.97346e-07
5.02206e-07
8.34975e-07
7.45929e-07
9.94983e-07
5.29109e-07
5.15866e-07
4.89844e-07
4.84707e-07
4.87201e-07
9.56163e-07
7.54022e-07
6.93977e-07
5.95493e-07
6.31423e-07
1.27508e-07
1.02018
1.04919
2.19391
0.858987
1.7204
1.61809
1.24136
1.53024
2.53781
1.61938
2.25251
0.628282
0.817176
1.02621
1.34197
1.41699
1.59914
1.40081
1.35836
1.74479
1.28007
1.53574
1.19634
1.12849
1.03839
0.927039
0.934349
0.142863
0.122925
0.14761
0.178251
0.166528
0.160606
0.0610106
0.0579085
0.168876
0.110873
0.0889741
0.0236628
0.0198824
0.0533653
0.0750256
0.0567392
0.0758478
0.00652508
0.00321867
0.000802848
0.00134645
0.00073191
0.00140441
0.00110041
0.00097543
0.00103809
0.000739299
0.000645411
0.00242373
0.000685903
0.000728615
0.0030437
0.00160119
0.00157846
0.000573741
0.000670834
0.0005558
0.00309102
0.000330462
0.000318415
0.000109325
2.01677e-05
3.54818e-05
9.47726e-06
6.76768e-06
8.40501e-06
7.7695e-06
8.78816e-06
8.7751e-06
8.08659e-06
8.27527e-06
8.56823e-06
7.64374e-06
3.09326e-05
2.56637e-05
2.13365e-05
1.85436e-05
8.3401e-06
7.97927e-06
1.48832e-05
9.35211e-06
3.953e-06
3.95806e-06
3.44564e-06
5.10421e-06
1.50062e-06
1.58187e-06
2.0142e-06
2.61935e-06
2.36564e-06
2.1908e-06
1.90054e-06
1.22404e-06
8.87053e-07
8.93247e-07
9.01359e-07
9.84623e-07
1.2492e-06
1.4084e-06
1.38549e-06
1.039e-06
6.49574e-07
3.29623e-07
3.9612e-07
3.94054e-07
1.98436e-07
1.72688e-07
1.85438e-07
1.77558e-07
2.06692e-07
2.07902e-07
4.31938e-07
4.42312e-07
4.58589e-07
4.84417e-07
5.14791e-07
1.64818e-06
1.81322e-06
2.00466e-06
2.8505e-06
2.85252e-06
9.3647
5.70335
10.4482
9.00302
8.01318
1.88058
2.35803
1.71291
1.74035
2.90984
2.13118
3.28859
2.93145
2.27135
2.18037
1.82633
1.72004
1.44077
1.44177
0.926116
1.16321
0.637103
1.00905
1.20868
1.11148
1.0694
1.08119
0.684891
0.646745
0.256407
0.187547
0.178024
0.0640359
0.111322
0.170585
0.140761
0.0674622
0.288112
0.434692
0.125212
0.531173
0.0605785
0.0578967
0.0472873
0.052405
0.00787401
0.001246
0.00124309
0.00130277
0.00112411
0.00123277
0.00414958
0.00278727
0.00445399
0.00411848
0.00429224
0.00220494
0.000613819
0.000574692
0.000434123
0.000549296
0.000571132
0.000605243
0.000617685
0.00330035
0.00342831
0.00015025
0.000230986
0.000167702
5.13431e-05
3.06424e-05
4.27511e-05
9.44866e-06
9.90254e-06
9.92554e-06
1.00863e-05
1.34891e-05
1.07279e-05
4.16323e-05
4.02778e-05
3.67344e-05
3.40799e-05
2.89333e-05
2.52514e-05
2.0157e-05
8.1701e-06
2.34243e-06
5.20587e-06
3.28813e-06
4.03269e-06
3.54949e-06
3.1893e-06
3.22213e-06
2.00736e-06
1.69174e-06
2.64316e-06
1.04401e-06
1.80009e-06
1.64754e-06
1.70939e-06
1.59972e-06
1.50428e-06
1.42616e-06
1.40152e-06
1.54334e-06
1.19103e-07
2.07837e-07
3.7347e-07
6.47477e-07
7.68267e-07
3.90557e-07
2.82509e-07
2.06192e-07
2.39127e-07
2.442e-07
2.05258e-07
2.1077e-07
2.19421e-07
2.52636e-07
3.14094e-07
3.47186e-07
2.48102e-07
2.8348e-07
2.60523e-07
1.47045e-06
2.10452e-06
2.30066e-06
2.24583e-06
14.0041
13.4379
13.0471
11.8593
10.3855
8.94084
4.75689
2.86525
1.96137
2.24604
2.10252
2.14261
2.13441
2.26835
2.29908
1.89034
1.83293
1.73424
1.93085
2.10002
1.94803
1.7371
1.44391
1.40161
1.24479
0.690723
0.607607
0.343493
0.270599
0.451167
0.165449
0.20456
0.095741
0.133302
0.143921
0.542851
0.288614
0.371132
0.523314
0.151383
0.075083
0.00831735
0.0121017
0.0450026
0.0127047
0.00642483
0.00507543
0.00409895
0.00495947
0.0046297
0.00559585
0.00593274
0.00509155
0.00493494
0.00101088
0.00420402
0.00293777
0.00220137
0.00034191
0.000543274
0.000470578
0.000407711
0.000538528
0.000470076
0.000269464
0.000524964
4.30356e-05
0
6.25483e-06
7.11502e-05
5.96082e-05
2.33822e-05
8.93105e-06
5.60589e-06
1.45232e-05
1.37921e-05
2.80547e-05
3.21544e-05
3.03618e-05
3.71421e-05
3.44032e-05
3.31532e-05
2.97917e-05
2.78886e-05
2.34419e-05
1.61055e-05
3.69657e-06
1.21573e-06
4.75035e-06
1.18772e-06
1.37802e-06
8.06069e-07
5.01308e-07
3.08351e-07
3.30545e-07
1.90289e-06
2.90912e-07
2.48349e-07
2.41096e-07
3.01628e-07
2.401e-07
8.40572e-07
9.6224e-07
1.31134e-06
6.9132e-07
1.84899e-07
2.38803e-07
1.34667e-07
2.02032e-07
1.68155e-07
1.91721e-07
1.33608e-07
1.93316e-07
1.73192e-07
2.56389e-07
2.57213e-07
2.21608e-07
3.1673e-07
3.99824e-07
3.27238e-07
3.34753e-07
3.81592e-07
5.99499e-07
3.71991e-07
6.74969e-07
1.69147e-06
1.83653e-06
2.21664e-06
16.457
15.9618
14.2952
14.3066
3.44533
2.68887
3.81987
3.69313
2.17775
2.1844
2.20996
1.86162
1.71347
1.65611
1.84171
2.09098
2.1496
2.12836
2.09465
2.11963
1.92721
2.05743
1.77213
1.27748
1.26142
1.18911
1.18627
1.34493
1.28671
1.35101
1.30332
1.36202
1.2882
1.26187
1.18341
1.03215
0.934281
0.877585
0.897259
0.889052
0.00189081
0.00544547
0.00704887
0.0531267
0.00955503
0.00992592
0.00460737
0.00615552
0.00521802
0.00482944
0.00599577
0.00399676
0.00497193
0.00305144
0.00424005
0.00393889
0.003286
0.00106806
0.000387352
0.000461506
0.000563915
0.000525043
0.000603166
0.00322321
4.7086e-06
2.69455e-06
1.47424e-05
3.10144e-05
1.20065e-05
1.90652e-05
1.2783e-06
2.43439e-06
1.6442e-06
2.68897e-06
2.53721e-06
9.29639e-06
3.95347e-06
4.17192e-06
3.70002e-06
3.81275e-06
2.19842e-06
2.30745e-06
1.45977e-06
1.30272e-06
7.68788e-07
9.43703e-06
9.98172e-06
1.9977e-06
5.16297e-06
5.47272e-06
1.9902e-06
1.59726e-06
1.69865e-06
3.36904e-07
3.5502e-07
3.10112e-07
2.90214e-07
2.72721e-07
1.90313e-07
2.18856e-07
2.71468e-07
2.53564e-07
2.66059e-07
2.37998e-07
1.15158e-07
2.13366e-07
2.33641e-07
2.47376e-07
2.01868e-07
2.34444e-07
2.05834e-07
1.71802e-07
1.56151e-07
1.82617e-07
4.5627e-07
4.28578e-07
3.80138e-07
5.51048e-07
7.01386e-07
8.82966e-07
9.51962e-07
6.08109e-07
1.24141e-06
1.3883e-06
1.56582e-06
1.64117e-06
1.6938e-06
1.97511e-06
16.1635
16.3362
3.93005
3.89613
3.64353
3.5471
3.65087
3.81861
2.99652
2.68903
3.19944
2.31438
2.48427
2.02404
2.26869
2.25053
2.12327
1.89643
1.87507
1.89774
1.88634
1.87293
1.60331
1.53485
1.54729
1.48376
1.50888
1.52194
1.48108
1.46573
1.40886
1.32125
1.24319
1.14264
1.02
1.0013
0.954305
0.928349
0.91126
0.939294
0.870866
0.912515
0.629672
0.0572168
0.0689328
0.0908683
0.0745913
0.0823999
0.00424399
0.00757745
0.00402279
0.00338652
0.00493428
0.00358822
0.00468181
0.00414126
0.00122328
0.00104617
0.00054705
0.000461968
0.000332782
0.000104315
0.000670068
2.92476e-05
2.11625e-05
3.29568e-05
1.16946e-05
1.09059e-05
6.9026e-06
9.45228e-06
5.30997e-06
1.10481e-06
5.56854e-06
1.23662e-06
6.10009e-06
1.23852e-05
3.32257e-05
9.55598e-06
9.22118e-07
5.68709e-07
6.84107e-07
6.0153e-07
5.74324e-07
5.99341e-07
4.85883e-07
4.08958e-07
2.41453e-07
2.90766e-07
3.79515e-07
7.123e-07
2.6391e-07
4.65261e-07
3.61079e-07
7.95346e-07
2.35574e-07
2.70843e-07
2.29716e-07
2.45312e-07
6.17347e-07
5.82077e-07
1.89897e-07
2.39779e-07
2.24182e-07
1.67805e-07
1.56072e-07
1.39547e-07
1.69858e-07
2.66249e-07
2.03185e-07
2.46929e-07
2.82984e-07
2.17775e-07
2.71036e-07
2.07255e-07
3.30532e-07
2.71054e-07
4.41529e-07
2.4946e-07
7.40023e-07
1.12184e-06
1.40421e-06
1.91234e-06
2.44269e-06
2.11396e-06
2.36505e-06
1.94528e-06
1.74968e-06
9.03658e-07
5.16255
11.8653
11.262
4.03335
3.13784
3.38789
3.51574
3.4951
2.51655
2.82159
2.85078
3.08586
3.0055
3.05991
2.96652
2.31414
1.85238
1.78191
1.35126
1.98572
1.36432
1.92942
1.72863
1.66877
1.73783
1.64798
1.66216
1.49826
1.48489
1.09866
1.10563
0.952504
0.959925
0.942771
0.822504
0.792714
0.856423
0.849866
0.586019
0.646362
0.637145
0.682269
0.135727
0.161977
0.116722
0.0796574
0.0863755
0.0882437
0.0772014
0.0768523
0.0523949
0.0424525
0.00898624
0.00888232
0.00673346
0.00584325
0.00129843
0.00512482
0.000858502
0.00381295
0.000247358
9.69622e-05
8.73533e-06
1.21764e-05
5.69447e-06
5.9943e-06
1.01639e-05
7.15447e-06
5.45233e-06
4.97183e-06
2.64706e-06
2.22556e-06
4.68243e-06
3.95357e-06
4.22865e-06
6.25375e-06
0.000276492
1.70726e-05
1.72339e-05
3.95464e-06
2.12508e-06
1.36569e-06
1.46856e-06
3.7966e-07
3.48363e-07
4.43596e-07
3.42125e-07
2.03371e-07
2.62232e-07
3.56679e-07
6.37143e-07
6.86576e-07
5.47592e-07
9.24685e-07
7.01338e-07
2.17489e-07
4.52966e-07
4.75228e-07
4.67804e-07
5.6332e-07
5.40576e-07
1.91673e-07
6.70813e-08
7.28524e-08
2.93319e-08
3.41198e-08
8.97703e-08
5.18394e-08
1.45253e-07
1.54406e-07
6.51404e-07
6.39062e-07
7.30727e-07
6.16077e-07
7.03618e-07
6.77456e-07
4.60072e-07
5.00981e-07
5.39231e-07
3.90902e-07
6.17572e-07
6.28297e-07
1.4323e-06
1.70377e-06
1.99699e-06
2.43569e-06
2.1845e-06
2.5937e-06
3.98703
10.0779
4.52602
4.24372
3.55719
3.38101
3.26797
3.28688
3.37508
2.9478
2.6506
2.07734
2.00452
1.47413
2.1738
2.44969
2.31647
2.03627
1.56014
2.60058
1.12601
2.69169
1.70317
1.29879
1.47242
1.74016
1.54841
1.54464
1.44629
1.41612
1.15427
1.1479
1.07449
0.953476
0.821338
0.901912
0.898059
1.0246
0.941709
1.03348
1.04386
1.18291
0.14943
0.0659113
0.116559
0.102892
0.0765803
0.0911121
0.0675685
0.0765314
0.0545682
0.00314451
0.012333
0.0157263
0.0129376
0.0113683
0.0072253
0.0083762
0.0068617
0.0541228
0.000166993
3.6503e-05
5.20468e-05
5.81496e-05
1.02274e-05
8.44385e-06
1.44313e-05
1.15162e-05
1.213e-05
2.53196e-06
3.10421e-06
2.34651e-06
7.54882e-06
4.57465e-06
5.52996e-07
1.70294e-06
5.28712e-07
1.66946e-06
1.17856e-06
7.35514e-07
9.30284e-07
1.60584e-06
1.66437e-06
1.87503e-06
1.3893e-06
4.58195e-07
2.99499e-07
2.67458e-07
8.27385e-07
7.03179e-07
1.02371e-06
1.23395e-06
1.54936e-06
1.09076e-06
1.00715e-06
9.32857e-07
9.45027e-07
8.97799e-07
9.30829e-07
9.29247e-07
9.02262e-07
7.32717e-07
5.68442e-07
1.42859e-07
1.92052e-07
2.14147e-07
1.46148e-07
1.72358e-07
2.05933e-07
1.41789e-07
1.82777e-07
6.77206e-07
5.11131e-06
6.66933e-07
5.70217e-06
7.35353e-07
4.14065e-07
4.70998e-07
4.7584e-07
3.92246e-07
4.90367e-07
7.22587e-07
6.92431e-07
8.09869e-07
1.10505e-05
3.79079e-06
1.06604e-05
3.99007e-06
5.49314
5.27474
4.2639
4.61512
4.01978
3.83814
3.68756
3.14672
2.96219
2.67152
2.92829
2.47665
2.20682
3.02
2.75046
2.57414
2.43977
2.70158
2.78553
3.00601
2.69968
3.59412
1.59557
1.61461
1.72756
1.51322
1.51654
1.54746
1.28274
1.37778
0.800708
0.574234
0.885814
0.576338
1.02677
1.22698
1.15556
1.31441
1.33317
1.46934
1.70477
1.79759
2.28775
2.25281
1.84664
0.216196
0.182003
0.72615
0.564743
0.020911
0.00493395
0.0177181
0.0177654
0.0209914
0.016743
0.0247526
0.109316
0.100649
0.135011
0.100942
0.010414
0.00884022
0.00737182
0.00534827
0.00392026
0.000643591
0.000852375
1.54835e-05
1.38047e-05
1.54736e-05
1.53328e-05
6.4412e-06
1.80316e-06
3.2981e-06
1.23063e-06
1.14464e-05
2.63238e-07
3.61128e-07
2.82737e-07
1.98469e-07
7.4259e-07
8.47378e-07
8.40921e-07
1.68996e-06
1.54799e-06
1.31647e-06
1.23252e-06
8.06897e-07
1.49972e-06
1.22502e-06
1.43664e-06
1.44292e-06
1.42499e-06
1.48313e-06
1.41153e-06
1.46626e-06
1.39295e-06
7.7047e-07
7.54656e-07
7.0508e-07
6.81233e-07
6.49012e-07
6.16091e-07
3.73208e-07
1.26364e-07
1.85903e-07
1.68972e-07
1.85287e-07
2.53937e-07
2.47867e-07
2.37771e-07
2.55281e-07
4.63726e-07
5.04079e-07
4.20245e-07
4.69334e-07
4.61526e-07
4.82122e-07
4.63679e-07
4.79828e-07
6.96389e-07
8.38911e-07
8.79522e-07
8.23264e-07
8.94335e-06
1.31061e-05
1.52851e-05
1.09157e-05
5.66524
9.46239
7.28903
7.54167
6.22465
3.18983
6.69475
7.41925
4.43576
5.57151
5.00177
4.50766
5.74322
7.31949
4.11451
5.47173
4.78002
6.29148
5.88735
5.427
4.06699
3.74759
3.15837
2.88814
2.79736
1.93915
1.73647
2.0846
1.36073
1.12922
0.555937
1.06182
0.589392
0.864732
1.2041
1.43411
1.48515
1.69868
1.64818
1.80036
1.77647
1.70422
1.74003
1.73521
1.22374
1.60457
1.61763
1.54413
0.783911
1.30168
1.0557
0.818483
0.216011
0.192699
0.151803
0.11237
0.0940608
0.0896772
0.103413
0.0732051
0.0171999
0.0273419
0.00870255
0.0036413
0.00266085
0.00125485
0.000610648
0.000828756
0.000735462
1.23644e-05
1.51482e-05
2.49219e-06
7.20203e-07
9.67893e-07
1.13948e-06
1.44106e-06
8.34121e-07
6.81962e-07
5.31787e-07
1.96972e-07
5.88931e-07
7.24305e-07
7.05567e-07
7.1313e-07
5.98278e-07
7.43223e-07
1.02746e-07
1.26334e-06
1.24744e-06
1.38067e-06
1.34873e-06
1.1554e-06
1.15559e-06
8.4901e-07
6.68896e-07
2.13116e-07
3.65364e-07
4.02987e-07
3.61446e-07
4.70414e-08
4.28719e-08
4.86063e-07
4.37627e-07
3.13948e-07
1.28043e-07
1.14988e-07
1.31763e-07
1.27041e-07
1.89352e-07
2.1052e-07
1.94461e-07
2.14546e-07
2.9677e-07
3.53799e-07
3.51673e-07
3.95562e-07
4.05082e-07
3.73844e-07
8.36295e-07
3.34262e-07
9.26849e-07
1.24083e-06
1.4441e-06
2.24438e-06
2.56869e-06
6.5536e-06
1.90041e-05
2.14735e-05
8.70081
16.1176
5.80193
8.53143
6.3914
8.96188
8.5687
7.19529
5.73262
5.77336
6.25438
6.20982
7.5531
6.20208
4.83294
4.79259
5.96915
7.04714
5.54207
30.4612
17.1315
5.08835
4.51583
8.2399
3.93079
9.98414
5.04023
6.36654
1.13721
1.4285
2.69627
1.0077
0.986606
1.62732
1.71137
1.9861
1.8417
1.7475
1.96416
1.91297
1.37286
1.19703
1.57898
2.2017
1.90503
2.89211
2.70528
2.38541
1.82235
1.58993
0.423012
1.30477
0.257608
0.171337
0.106848
0.136434
0.112809
0.114215
0.0945651
0.032782
0.0790833
0.0872788
0.0110203
0.0824917
0.00643356
0.0543002
4.04163e-05
1.39924e-05
3.57732e-06
4.55851e-06
1.22106e-06
9.68098e-06
2.14325e-07
2.03266e-07
2.06697e-07
8.34439e-07
1.9222e-07
9.56692e-07
9.61463e-07
6.56596e-07
8.42813e-07
6.59071e-07
7.13871e-07
6.74765e-07
5.05371e-07
4.43596e-07
4.32822e-07
5.13486e-08
2.73522e-07
3.40416e-07
5.15447e-07
3.19352e-07
3.72744e-07
3.06992e-08
7.51243e-11
9.48154e-11
1.37416e-10
4.31573e-07
3.88243e-07
4.72524e-07
4.49889e-07
8.01301e-08
4.96786e-08
1.26775e-07
1.20021e-07
7.49497e-08
8.24174e-08
9.25376e-08
1.04782e-07
2.17592e-07
2.25341e-07
1.75683e-07
2.29653e-07
2.65548e-07
3.30545e-07
3.2412e-07
7.45061e-07
7.86033e-07
8.37693e-07
8.28668e-07
1.09485e-06
1.08204e-06
1.26517e-06
1.98239e-06
2.39578e-06
2.82527e-06
3.40522e-06
2.15315e-05
141.967
43.9607
20.4067
40.7398
18.4706
20.2566
6.5161
6.96074
5.63374
7.51254
6.91949
7.63657
7.54062
6.59742
6.19117
5.72128
7.1984
48.4631
39.5161
39.6392
39.6144
15.4476
13.3348
12.5842
16.0599
19.8179
7.68327
5.36093
2.05162
1.32963
8.2334
7.58328
4.82925
3.71403
3.06408
3.60637
3.42758
4.07304
3.38793
4.94895
4.75529
4.23939
4.0731
3.6186
3.02057
2.50412
1.63102
1.83322
1.49596
2.10313
1.16626
2.02696
0.432862
0.260343
0.234108
0.0404659
0.127452
0.130516
0.0917117
0.0435505
0.100827
0.0142419
0.0843181
0.0289513
2.76258e-05
2.64098e-05
3.34517e-06
8.54148e-07
4.08192e-07
2.58837e-06
6.99055e-06
9.09538e-06
6.05677e-06
9.1114e-07
9.36037e-07
8.09918e-07
2.2121e-07
2.04134e-07
4.42044e-07
7.18232e-07
6.73023e-07
8.54636e-07
7.72465e-07
7.92746e-07
4.18454e-07
6.58796e-07
6.38365e-07
5.64188e-07
1.90479e-08
2.55145e-08
1.83165e-08
1.62648e-08
6.9811e-09
4.63672e-09
5.07021e-09
1.22958e-09
1.0736e-10
1.55984e-10
8.08003e-09
5.9275e-09
1.60576e-08
1.17386e-07
5.49036e-08
1.29643e-07
1.69147e-07
3.0564e-08
2.45983e-08
1.96247e-08
2.18829e-08
1.34193e-07
2.56968e-07
1.58029e-07
2.30605e-07
1.79377e-07
5.97168e-07
5.44075e-07
5.78224e-07
7.04117e-07
5.58253e-06
1.00349e-06
8.71073e-06
1.30537e-06
1.23201e-05
1.91194e-06
1.55216e-05
1.25449e-05
1.40945e-05
1.58372e-05
188.759
73.5028
47.8225
155.615
132.384
163.359
138.325
29.4307
10.7374
32.2104
7.44405
25.965
9.02674
8.86107
17.8019
48.4521
52.717
54.7613
43.1717
43.4635
15.8982
77.9402
44.2817
83.5003
239.971
267.56
258.965
247.882
194.695
11.1434
14.739
12.9219
8.71822
6.43736
3.98982
3.96657
5.79829
5.87138
6.04756
6.84986
5.82318
4.4953
3.98584
2.82206
2.64252
2.26671
2.0017
2.30116
2.62561
2.86972
2.2581
13.1673
0.0778807
0
0.0155378
0.0118756
0.0612402
0.00251585
0.00452977
0.00143659
0.00206693
0.00204337
0.00295134
0
4.31432e-05
3.73588e-05
5.63352e-06
2.39405e-06
2.03858e-06
2.37248e-06
5.70063e-06
8.84857e-06
6.32145e-06
9.7235e-06
1.0175e-05
4.89314e-06
8.13995e-07
4.57438e-07
6.77089e-07
6.89505e-07
6.17088e-07
6.83196e-07
4.71049e-07
7.30534e-07
2.81637e-07
2.95988e-07
4.11432e-07
5.64334e-07
2.43952e-08
8.70954e-09
6.36021e-09
5.93687e-09
2.58632e-09
5.09919e-09
4.08836e-09
4.05963e-09
0
0
7.88651e-10
3.2552e-10
4.86519e-10
1.26761e-07
1.64681e-07
3.26806e-08
1.50186e-07
3.28084e-08
2.55188e-08
2.11393e-08
1.41228e-08
2.01204e-08
3.18337e-09
2.21694e-07
5.54149e-07
4.3312e-07
2.14495e-06
4.82762e-06
4.91364e-06
5.15217e-06
3.56841e-06
6.47042e-06
3.19452e-06
1.42606e-05
1.77384e-05