# vtk DataFile Version 3.0
vtk output
ASCII
DATASET POLYDATA
POINTS 24578 float
-151.53 81.83 75.23
-146.76 79.98 77.9
-147.26 82.51 76.57
-151.22 79.35 76.36
-146.3 77.32 78.47
-150.76 76.75 77.01
-146.01 74.82 79.56
-150.4 74.19 77.98
-145.43 72.07 79.86
-149.95 71.56 78.66
-145.02 69.6 80.58
-149.55 69.11 79.46
-144.64 67.21 81.53
-149.14 66.64 80.2
-144.27 64.77 82.34
-148.68 64.12 80.8
-144.06 62.18 83.1
-148.26 61.63 81.51
-143.83 59.57 83.96
-148.2 59.14 82.73
-143.54 56.98 84.63
-148.02 56.58 83.6
-143.3 54.28 84.95
-147.52 53.77 83.62
-142.71 51.53 84.98
-147.03 50.98 83.68
-142.34 49.05 85.71
-146.66 48.52 84.06
-142.24 46.57 86.6
-146.26 46.05 84.34
-145.97 43.63 84.94
-141.82 44.09 87.11
-141.56 41.44 87.04
-145.67 41.21 85.5
-140.98 38.76 87.5
-145.29 38.66 85.7
-140.75 36.16 87.85
-144.89 36.1 85.85
-144.62 33.53 86.3
-140.46 33.57 88.45
-140.13 30.94 88.56
-144.22 30.94 86.41
-143.81 28.2 86.49
-139.84 28.2 88.9
-143.44 25.45 86.68
-139.6 25.51 89.44
-143.18 22.67 87.12
-139.22 22.78 89.44
-142.9 19.88 87.51
-138.79 20.04 89.71
-142.6 17.15 87.83
-138.39 17.32 89.75
-137.91 14.61 89.73
-142.25 14.42 88.03
-141.99 11.68 88.46
-137.6 11.89 89.94
-141.61 8.95 88.57
-137.22 9.16 90.05
-141.13 6.27 88.48
-136.86 6.45 90.3
-140.68 3.58 88.47
-136.37 3.76 90.16
-140.25 0.89 88.51
-135.88 1.07 90.03
-139.71 -1.79 88.26
-135.64 -1.76 90.02
-135.64 -4.55 89.75
-140 -4.44 88.09
-135.69 -7.09 89
-140.34 -7.12 88.03
-135.79 -9.62 88.23
-140.37 -9.69 87.25
-135.84 -12.19 87.54
-140.43 -12.27 86.54
-135.99 -14.75 87
-140.5 -14.79 85.8
-136.21 -17.35 86.64
-140.62 -17.33 85.19
-136.42 -19.93 86.21
-140.85 -19.94 84.82
-136.49 -22.42 85.34
-140.79 -22.34 83.7
-136.45 -24.91 84.43
-140.78 -24.79 82.73
-136.55 -27.44 83.74
-140.84 -27.3 81.99
-136.57 -29.97 82.98
-140.97 -29.86 81.42
-136.73 -32.54 82.43
-141.02 -32.36 80.63
-136.76 -35.12 81.64
-141.09 -34.97 79.94
-141.32 -37.69 79.69
-136.83 -37.72 80.96
-141.45 -40.33 79.13
-136.9 -40.34 80.32
-137.11 -43 79.41
-141.48 -42.91 78.35
-141.57 -45.38 77.61
-137.04 -45.54 78.64
-141.59 -47.8 76.7
-137.03 -47.91 77.56
-141.86 -50.43 76.49
-137.15 -50.39 76.9
-141.9 -52.84 75.63
-137.27 -52.84 76.11
-141.91 -55.11 74.4
-137.53 -55.19 75.26
-137.48 -57.49 74.21
-141.9 -57.35 73.07
-142.03 -59.74 72.14
-137.7 -59.92 73.43
-142.25 -62.22 71.44
-137.97 -62.48 72.92
-142.57 -64.67 70.67
-138.15 -65.14 72.4
-142.87 -67.1 69.86
-138.34 -67.41 71.12
-143.16 -69.56 69.09
-138.58 -69.8 70.17
-143.42 -71.97 68.22
-138.72 -72 68.84
-143.42 -74.03 66.78
-138.71 -74.17 67.59
-143.52 -76.26 65.69
-138.9 -76.5 66.65
-143.64 -78.59 64.8
-139.03 -78.91 65.88
-143.64 -80.66 63.43
-139.36 -81.09 64.3
-142.41 80.53 78.87
-142.88 83.09 77.59
-141.83 77.87 79.86
-141.49 75.33 80.8
-140.97 72.61 81.19
-140.47 70.13 81.77
-140.01 67.69 82.47
-139.94 65.21 83.59
-139.84 62.72 84.64
-139.44 60.04 85.13
-139.12 57.42 85.86
-138.88 54.8 86.42
-138.56 52.14 86.78
-138.19 49.56 87.25
-137.83 46.99 87.76
-137.58 44.31 88.01
-137.31 41.63 88.23
-137.03 38.95 89.21
-136.57 36.22 89.77
-136.22 33.57 90.06
-135.88 30.91 90.36
-135.74 28.24 91.1
-135.47 25.56 91.56
-134.94 22.88 91.41
-134.47 20.19 91.43
-134.08 17.49 91.57
-133.61 14.8 91.52
-133.09 12.1 91.2
-132.71 9.37 91.23
-132.3 6.67 91.32
-131.94 3.96 91.53
-131.76 1.11 91.67
-131.5 -1.71 91.62
-131.31 -4.41 90.89
-131.1 -7.09 90.13
-131.35 -9.7 89.79
-131.55 -12.29 89.33
-131.63 -14.81 88.62
-131.74 -17.34 87.96
-131.85 -19.85 87.19
-132.06 -22.42 86.66
-132.19 -25.02 86.17
-132.25 -27.57 85.48
-132.26 -30.09 84.65
-132.44 -32.72 84.26
-132.56 -35.36 83.72
-132.63 -37.97 83.04
-132.75 -40.58 81.94
-132.83 -43.16 80.72
-132.77 -45.71 79.94
-132.75 -48.3 79.25
-132.77 -50.64 78.12
-132.8 -52.99 77
-132.95 -55.32 76.2
-133.13 -57.69 75.53
-133.33 -60.11 74.69
-133.5 -62.48 73.72
-133.64 -65.09 73
-133.72 -67.59 72.04
-133.86 -69.81 70.74
-134.01 -72.03 69.43
-134.18 -74.44 68.63
-134.35 -76.86 67.84
-134.77 -79.33 66.76
-135.07 -81.54 65.2
-138.04 81.11 79.93
-138.51 83.66 78.64
-137.48 78.45 80.95
-136.81 75.7 81.58
-136.53 73.2 82.68
-136.2 70.85 83.66
-136.01 68.35 84.53
-135.78 65.76 85.17
-135.49 63.19 85.82
-135.19 60.56 86.38
-134.98 57.99 87.45
-134.76 55.37 88.25
-134.53 52.77 88.88
-134 50.11 89.1
-133.65 47.3 89.03
-133.3 44.56 89.42
-133.29 41.92 90.17
-132.89 39.2 91
-132.5 36.43 91.58
-132.05 33.68 92.21
-131.7 30.98 92.36
-131.44 28.31 92.66
-131.04 25.67 93.02
-130.62 23.02 93.01
-130.15 20.36 93.11
-129.82 17.66 93.35
-129.27 14.97 93.05
-128.74 12.27 92.73
-128.4 9.55 92.87
-127.96 6.85 92.86
-127.84 4 93.22
-127.59 1.17 93.17
-127.27 -1.64 92.97
-127.25 -4.36 92.57
-127.15 -7.08 92.07
-127.17 -9.83 91.83
-127.29 -12.38 91.16
-127.29 -14.86 90.23
-127.44 -17.42 89.6
-127.57 -19.97 88.96
-127.76 -22.53 88.35
-127.82 -25.1 87.72
-127.85 -27.64 86.95
-127.95 -30.27 86.46
-128.2 -32.95 86.24
-128.25 -35.54 85.49
-128.5 -38.26 84.8
-128.59 -40.83 83.55
-128.62 -43.36 82.3
-128.5 -45.86 81.36
-128.57 -48.51 80.64
-128.51 -50.96 79.6
-128.63 -53.39 78.68
-128.82 -55.89 78.24
-129.15 -58.39 77.85
-129.06 -60.46 76.29
-128.99 -62.4 74.44
-128.98 -64.79 73.19
-129.01 -67.15 71.96
-128.97 -69.58 70.84
-129.28 -72.05 69.98
-129.48 -74.55 69.36
-130.01 -77.21 68.65
-130.42 -79.71 67.63
-130.79 -82.03 66.21
-133.82 81.84 81.46
-134.36 84.47 80.38
-133.19 79.09 82.22
-132.49 76.28 82.7
-131.95 73.65 83.71
-131.93 71.29 85
-131.87 68.9 86.17
-131.5 66.27 86.57
-131.13 63.64 86.94
-130.87 61.02 87.58
-130.68 58.45 88.47
-130.46 55.86 89.34
-130.18 53.24 90.02
-129.88 50.44 90.31
-129.64 47.69 90.79
-129.42 44.94 91.36
-129.23 42.2 92.03
-128.71 39.37 92.41
-128.45 36.65 93.48
-128.03 33.86 94.03
-127.47 31.03 94.24
-127.19 28.41 94.71
-126.88 25.78 95.12
-126.32 23.16 94.88
-125.8 20.53 94.74
-125.36 17.84 94.64
-124.86 15.16 94.43
-124.49 12.44 94.52
-124.2 9.71 94.8
-123.95 6.88 94.78
-123.68 4.05 94.73
-123.4 1.23 94.62
-123.18 -1.6 94.69
-123.37 -4.41 94.84
-123.31 -7.12 94.32
-123.16 -9.79 93.63
-122.95 -12.42 92.76
-123.09 -14.99 92.12
-123.27 -17.57 91.56
-123.4 -20.13 90.9
-123.5 -22.66 90.14
-123.53 -25.22 89.42
-123.57 -27.78 88.7
-123.68 -30.42 88.22
-123.74 -33.02 87.62
-123.94 -35.69 86.77
-124.14 -38.36 85.91
-124.27 -40.96 84.88
-124.51 -43.67 84.17
-124.44 -46.18 83.04
-124.36 -48.68 81.9
-124.32 -51.14 80.87
-124.34 -53.66 80.01
-124.65 -56.22 79.72
-124.85 -58.64 79.12
-124.76 -60.62 77.46
-124.57 -62.46 75.52
-124.49 -64.69 73.94
-124.51 -67.1 72.74
-124.57 -69.65 71.8
-124.65 -72.26 70.99
-125.14 -74.86 70.13
-125.57 -77.36 69.04
-126.01 -79.84 67.96
-126.39 -82.16 66.58
-129.58 82.52 82.46
-130.23 85.32 82
-128.9 79.77 83.09
-128.4 77.11 83.84
-127.98 74.41 84.96
-127.56 71.77 85.9
-127.33 69.24 86.57
-127.15 66.76 87.43
-126.86 64.14 88.01
-126.52 61.49 88.81
-126.36 58.96 89.84
-126.14 56.38 90.8
-125.97 53.53 91.15
-125.51 50.64 91.5
-125.42 47.93 92.31
-125.22 45.19 93.14
-125.05 42.45 93.81
-124.64 39.66 94.38
-124.31 36.88 95.2
-123.77 34.05 95.42
-123.26 31.23 95.69
-122.78 28.52 96.11
-122.44 25.87 96.38
-121.98 23.27 96.26
-121.42 20.65 96.06
-121.04 17.96 96.08
-120.68 15.29 96.36
-120.38 12.57 96.56
-120.17 9.75 96.72
-119.91 6.93 96.66
-119.55 4.12 96.37
-119.27 1.3 96.28
-119.07 -1.54 96.32
-119.25 -4.36 96.51
-119.22 -7.1 96.08
-119.04 -9.77 95.31
-119 -12.5 94.8
-118.91 -15.21 94.19
-119.08 -17.79 93.59
-119.2 -20.38 92.98
-119.3 -22.91 92.18
-119.31 -25.47 91.43
-119.31 -28 90.63
-119.33 -30.55 89.87
-119.45 -33.15 88.84
-119.6 -35.8 87.91
-119.83 -38.5 87.17
-120.05 -41.2 86.43
-120.26 -43.87 85.57
-120.32 -46.42 84.63
-120.24 -48.94 83.59
-120.24 -51.46 82.7
-120.29 -53.99 81.83
-120.1 -56.26 80.6
-120.22 -58.48 79.45
-120.33 -60.66 78.2
-120.24 -62.81 76.84
-120.26 -65.2 75.6
-120.18 -67.48 74.2
-120.23 -70.02 73.25
-120.52 -72.67 72.16
-120.81 -75.19 70.96
-121.18 -77.58 69.65
-121.52 -79.9 68.24
-121.92 -82.27 66.97
-125.25 83.17 83.41
-125.88 85.88 82.84
-124.6 80.45 83.94
-124.22 77.72 84.75
-123.94 75.09 85.93
-123.46 72.43 86.81
-122.93 69.71 87.46
-122.73 67.14 88.15
-122.59 64.64 89.06
-122.25 62 89.9
-121.95 59.4 90.9
-121.96 56.7 91.92
-121.73 53.8 92.2
-121.47 50.99 93.04
-121.27 48.22 94.07
-121.07 45.45 94.8
-120.88 42.69 95.58
-120.53 39.9 96.26
-120.06 37.06 96.59
-119.52 34.23 96.77
-119.19 31.45 97.53
-118.64 28.71 97.7
-118.07 25.97 97.81
-117.65 23.36 97.86
-117.2 20.75 97.82
-116.76 18.09 97.81
-116.45 15.42 98.16
-116.25 12.62 98.27
-115.94 9.82 98.09
-115.72 7.01 98.16
-115.43 4.19 98.08
-115.24 1.34 98.13
-115.02 -1.5 98.11
-115.03 -4.27 97.86
-115.05 -7.04 97.62
-115.01 -9.78 97.12
-114.91 -12.5 96.46
-114.83 -15.21 95.87
-114.79 -17.94 95.36
-114.95 -20.55 94.79
-115.09 -23.14 94.17
-115.09 -25.69 93.41
-115.09 -28.25 92.66
-115.19 -30.82 91.55
-115.34 -33.43 90.58
-115.56 -36.16 89.86
-115.65 -38.76 88.81
-115.73 -41.32 87.6
-115.89 -43.96 86.62
-115.94 -46.5 85.75
-115.97 -49.02 84.82
-116.06 -51.62 84.1
-116.16 -54.22 83.41
-116 -56.46 81.98
-115.78 -58.59 80.34
-115.73 -60.7 78.9
-115.82 -63.01 77.89
-115.91 -65.56 77.02
-115.85 -67.86 75.66
-116.07 -70.39 74.35
-116.45 -73.24 73.66
-116.73 -75.78 72.45
-116.87 -78.01 70.66
-117.13 -80.1 68.85
-117.46 -82.37 67.36
-120.93 83.58 83.84
-121.35 86.18 83.25
-120.43 80.92 84.76
-120.24 78.29 85.68
-119.85 75.73 86.84
-119.39 73.08 87.68
-118.97 70.39 88.56
-118.52 67.71 89.38
-118.27 65.1 89.93
-117.89 62.43 90.71
-117.77 59.68 91.68
-117.62 56.89 92.64
-117.53 54.11 93.38
-117.25 51.28 94.27
-116.99 48.44 95.07
-116.61 45.56 95.63
-116.37 42.76 96.18
-116.01 39.98 96.85
-115.62 37.17 97.41
-115.23 34.39 98.02
-114.97 31.62 98.96
-114.53 28.91 99.33
-113.9 26.15 99.26
-113.4 23.47 99.53
-113.04 20.85 99.72
-112.61 18.2 99.71
-112.34 15.45 99.77
-112.11 12.66 99.75
-111.7 9.9 99.43
-111.54 7.08 99.65
-111.31 4.26 99.65
-111.1 1.42 99.6
-110.91 -1.42 99.76
-110.84 -4.17 99.3
-110.76 -6.92 98.71
-110.8 -9.71 98.47
-110.76 -12.46 97.96
-110.67 -15.19 97.39
-110.65 -17.93 96.92
-110.56 -20.62 96.27
-110.66 -23.19 95.59
[...]
CELL_DATA 49152
SCALARS Temperature float 1
LOOKUP_TABLE default
287.82
277.552
181.013
210.21
276.79
256.23
86.3322
230.439
243.434
257.736
275.747
240.096
252.107
194.373
238.745
216.831
246.547
297.878
235.081
270.728
162.417
55.4401
64.8588
62.463
25.9027
56.0521
259.956
20.2424
20.4041
20.8402
15.6774
18.3399
20.7058
12.7809
12.5136
10.3447
12.9176
14.2206
9.26676
8.30064
6.56981
11.4537
8.55568
12.2965
9.9987
4.72238
8.06082
6.95167
6.59591
0.470477
0.518251
0.413786
2.1289
0.103181
0.0798176
0.0800836
0.0204615
0.0760044
0.114562
0.0264084
0.0151813
0.015785
0.0184407
0.0273294
0.0732251
0.0600278
0.00195732
0.00454875
0.00411727
0.00377846
0.00374972
0.00348751
0.00355225
0.00264855
0.00331155
0.00212654
0.00268201
0.00279897
0.000481043
0.00342319
0.00241364
0.000528699
0.000755474
0.000871501
0.000762471
0.000983661
0.00105205
0.000788785
0.000777808
0.00095606
0.00144142
0.000361331
0.000960389
0.000383721
0.000221277
0.000567366
0.000566894
0.000151269
0.00020117
0.000148631
0.000171811
6.67593e-05
7.93301e-05
5.46452e-05
4.64255e-05
3.79194e-05
2.74682e-05
1.81506e-05
2.00826e-05
2.50857e-05
3.00726e-05
3.76426e-05
2.85805e-05
3.78843e-05
2.26119e-05
5.62402e-06
1.52365e-05
8.07452e-06
1.12467e-05
7.5122e-06
3.74067e-06
5.10826e-06
7.30145e-06
7.76912e-06
8.14933e-06
8.75571e-06
5.16001e-08
5.5814e-08
294.352
299.027
268.581
195.001
262.337
283.15
125.819
85.6077
205.809
244.09
240.664
281.308
297.216
254.317
284.2
236.997
145.464
261.928
243.396
235.482
218.488
41.932
43.5002
69.8265
59.5247
32.3398
74.2742
273.51
53.7635
221.171
43.8064
39.1464
27.0135
17.3155
12.7956
13.6061
14.2672
9.18087
3.33751
3.1793
8.61401
13.6538
12.2267
11.8043
0.840552
0.538568
1.34652
0.102573
0.109267
0.290198
0.260427
0.2636
0.0229495
0.0356513
0.0342065
0.040247
0.0430032
0.038932
0.0683002
0.0868782
0.0216431
0.0766292
0.0453111
0.0153361
0.00734894
0.00634245
0.00508711
0.00462788
0.0049126
0.00256705
0.00355994
0.00110985
0.000963494
0.00233131
0.000965002
0.00304792
0.000984548
0.00284948
0.00121046
0.0006521
0.00107935
0.00233429
0.000519784
0.000645079
0.000494869
0.000569243
0.00103517
0.00112805
0.00114637
0.000996436
0.00108377
0.00106146
0.000359155
0.000861874
0.000273637
0.000216137
0.000177689
0.000152207
0.000160292
0.000174613
0.000160425
8.43286e-05
7.98903e-05
3.95876e-05
3.90389e-05
3.78748e-05
3.12001e-05
2.99234e-05
2.92904e-05
2.59425e-05
3.60429e-05
1.83142e-05
3.91845e-05
2.98246e-05
7.25544e-06
7.46562e-06
8.85314e-06
7.62856e-06
7.55679e-06
6.74163e-06
6.89102e-06
7.60673e-06
7.46968e-06
8.08785e-06
8.40297e-06
7.58357e-06
6.94484e-08
5.93491e-08
294.7
293.353
268.669
264.131
211.258
281.711
295.876
85.2768
269.392
126.551
242.826
164.173
177.343
281.701
211.749
285.547
216.263
182.63
279.062
220.341
237.349
170.39
194.346
53.5225
58.6471
50.0249
55.8777
35.3407
37.4838
41.2588
30.923
33.1758
29.978
220.898
114.13
142.206
10.1167
20.124
11.9776
8.22388
13.952
1.8978
5.36285
2.16206
1.2021
0.208994
0.0432629
0.0319806
0.0370848
0.124513
0.174039
0.0389487
0.03536
0.0320769
0.0272583
0.0286137
0.0266409
0.0667531
0.0886366
0.117271
0.101477
0.0688133
0.0602853
0.0238409
0.00688613
0.0095139
0.00490615
0.00205001
0.00375877
0.00358106
0.00104438
0.00152822
0.000724599
0.000613619
0.000600005
0.00067194
0.000620909
0.000607344
0.00066366
0.000602097
0.000519108
0.00102151
0.000449363
0.000734474
0.000978239
0.000535034
0.00106224
0.00130575
0.00086806
0.000993059
0.000884078
0.000871135
0.00027998
0.000255534
0.000227345
0.000222894
0.000198952
0.000155145
0.000137897
0.000130669
0.000110602
0.000112075
0.000107148
8.75579e-05
9.31935e-05
0.000120092
0.000100292
0.000126719
2.02529e-05
1.97399e-05
8.59187e-06
4.59055e-06
5.51385e-06
3.40876e-06
5.60869e-06
4.46778e-06
4.98935e-06
3.64981e-06
5.75671e-06
6.23297e-06
8.17944e-06
6.56841e-06
8.39329e-06
9.33241e-06
7.97337e-06
7.97697e-06
1.55931e-07
3.18242e-08
245.42
279.019
201.423
259.879
125.17
208.461
267.101
289.789
310.536
273.486
294.927
250.623
69.7061
224.113
74.434
236.829
235.077
215.064
266.187
285.333
267.347
256.924
240.01
234.22
56.5706
57.2121
192.845
51.744
31.9965
35.8611
31.9227
201.504
214.521
71.3612
194.597
254.725
138.563
39.0748
5.50488
2.32283
8.84994
11.5879
9.96488
11.5351
0.258398
0.171733
0.0771649
0.101075
0.0417859
0.149847
0.0536656
0.048084
0.116318
0.0379259
0.0271452
0.134366
0.0329264
0.0695055
0.150093
0.0770785
0.0761563
0.0274124
0.0321516
0.0267028
0.146432
0.0286693
0.0276614
0.00810406
0.00157565
0.00307609
0.000770397
0.000520693
0.000640839
0.0006699
0.000733599
0.000750948
0.000688224
0.00070301
0.000678356
0.000629528
0.00240856
0.00199849
0.00166114
0.00144422
0.000642401
0.000619341
0.00123139
0.000792297
0.000289517
0.00029012
0.00025242
0.00037437
0.000109385
0.000137244
0.000147691
0.000226262
0.000204441
0.000189451
0.000164629
0.000106114
7.76569e-05
7.84468e-05
7.88656e-05
8.57706e-05
0.00010807
0.000122019
0.0001199
8.80729e-05
6.65709e-06
6.28519e-06
5.88541e-06
5.3973e-06
2.28286e-06
2.18409e-06
2.15314e-06
2.08677e-06
2.16014e-06
2.03366e-06
5.89968e-06
5.98178e-06
6.28797e-06
6.0172e-06
8.16848e-06
7.17778e-06
7.54335e-06
7.00753e-06
5.00164e-06
4.60966e-06
97.7
274.753
212.895
242.484
247.638
140.446
271.743
255.943
253.573
311.454
251.701
311.756
286.709
195.499
234.927
163.617
252.563
230.365
280.145
261.069
266.556
254.351
100.572
239.262
83.3245
66.3547
259.384
171.271
200.088
235.25
209.695
210.976
68.6825
58.839
251.825
225.668
134.551
22.5498
11.1117
3.35523
15.369
4.23794
4.04471
2.90498
2.34565
1.1913
0.0732536
0.123938
0.139091
0.107639
0.0612683
0.206727
0.146562
0.213347
0.197133
0.199359
0.107633
0.0619826
0.027573
0.0200674
0.0261998
0.0272378
0.0265039
0.0287907
0.155183
0.160785
0.0130207
0.0197302
0.0145643
0.00385613
0.0026167
0.00332766
0.000770093
0.000801485
0.000788431
0.000801413
0.00114259
0.000866161
0.00324123
0.00313605
0.00286019
0.0026539
0.00225332
0.00196665
0.00156979
0.000620412
0.000173426
0.000380396
0.000238844
0.000294443
0.00025826
0.000232967
0.000235016
0.000173341
0.000145405
0.000193083
9.06356e-05
0.000155681
0.000142519
0.000148019
0.000138498
0.000130737
0.000123925
0.000121744
0.000133862
1.02881e-05
1.8306e-05
1.16001e-05
9.47187e-06
3.51889e-06
1.99641e-06
5.0102e-06
3.7016e-06
3.40438e-06
2.81141e-06
2.10752e-06
2.04126e-06
5.68525e-06
5.91103e-06
5.41342e-06
5.96096e-06
4.4677e-06
4.95224e-06
2.77019e-06
4.78765e-06
6.41183e-07
1.54359e-06
6.13622e-07
218.977
179.161
200.817
223.883
256.539
245.654
290.37
277.921
256.15
267.193
227.461
251.522
253.623
279.378
283.744
225.791
257.985
251.817
274.324
284.492
282.302
273.696
69.4351
170.101
256.999
79.9016
244.816
256.901
234.733
223.078
216.052
227.869
143.582
183.301
216.835
25.8956
41.4736
32.6018
13.3602
9.04083
3.39689
0.482696
0.492495
0.725285
2.06777
0.292225
0.232532
0.192747
0.23214
0.214841
0.261083
0.275051
0.238096
0.218046
0.0458287
0.188122
0.089026
0.0679755
0.0167893
0.0272279
0.0224701
0.0226924
0.0263806
0.0262224
0.020747
0.0193137
0.00128418
0
0.000185855
0.00553238
0.00487675
0.001996
0.000791205
0.000432444
0.00128318
0.00120828
0.00220039
0.00250746
0.00236668
0.00289157
0.0026783
0.00258118
0.00231945
0.00217144
0.0018251
0.0012533
0.000279088
0.000101015
0.000346057
9.93745e-05
0.000119557
6.6225e-05
4.14343e-05
2.64862e-05
2.8239e-05
0.000138169
2.5637e-05
2.18883e-05
2.12526e-05
2.60854e-05
2.11836e-05
7.35739e-05
8.34578e-05
0.000113551
5.98132e-05
9.82994e-06
2.96656e-06
2.30888e-06
2.22166e-06
6.79378e-06
3.58922e-06
2.41029e-06
5.60117e-06
7.23925e-06
3.00312e-06
2.90232e-06
5.99534e-06
4.47332e-06
5.60208e-06
6.76621e-06
4.46599e-06
4.34964e-06
1.73254e-06
1.29627e-06
1.05117e-06
4.89566e-07
5.3864e-07
5.88278e-07
253.787
242.825
281.763
210.468
275.71
251.775
287.327
289.477
256.003
260.507
261.212
213.091
243.45
239.799
212.924
279.512
256.416
266.819
279.422
283.888
277.929
289.791
261.836
74.4476
256.213
250.848
272.357
254.132
214.991
256.981
231.58
269.134
255.425
254.721
239.27
166.646
78.3657
213.647
240.578
257.556
0.115972
0.313635
0.368273
1.2484
1.36738
0.324185
0.215257
0.304472
0.243366
0.227145
0.28224
0.186922
0.209165
0.0919398
0.127479
0.11842
0.0988959
0.0494761
0.0220816
0.0357969
0.043459
0.0369525
0.0404485
0.150452
0.000142447
8.15291e-05
0.00044202
0.000926639
0.000855395
0.000569249
9.84724e-05
0.000187863
0.000144533
0.000206278
0.000202659
0.000825226
0.000294652
0.000311071
0.000275807
0.00028371
0.000163271
0.00017131
0.000109947
9.66187e-05
6.64874e-05
0.00073526
0.000777492
0.000173571
0.000383923
0.000409444
0.000171894
0.000138005
0.00014679
2.91592e-05
3.11703e-05
2.71484e-05
2.55021e-05
2.40126e-05
1.67875e-05
1.92955e-05
2.39218e-05
2.23467e-05
2.34645e-05
2.09974e-05
1.01569e-05
2.41865e-06
2.97797e-06
3.39153e-06
3.62281e-06
3.42389e-06
3.80741e-06
3.59143e-06
6.64885e-06
3.97196e-06
2.08588e-06
2.12511e-06
2.07025e-06
2.13641e-06
6.41936e-06
5.83428e-06
3.56648e-06
5.57104e-06
1.06501e-06
8.64594e-07
7.64369e-07
6.98248e-07
5.23983e-07
5.36656e-07
276.058
240.129
271.838
274.511
279.986
280.382
290.912
298.884
281.538
267.395
292.629
261.378
270.821
248.01
193.696
225.89
269.551
244.252
246.731
275.877
261.408
276.349
261.547
255.937
267.387
264.698
230.788
261.785
204.119
233.426
249.122
233.96
248.193
269.394
217.593
233.623
220.547
254.647
256.752
205.864
163.769
170.381
15.0216
4.53668
4.59874
4.5176
3.53542
3.53921
0.0611689
0.109175
0.191247
0.161381
0.3469
0.205032
0.140772
0.124482
0.0376604
0.0731499
0.0401713
0.0230583
0.0165497
0.00834741
0.0530698
0.00147609
0.00121076
0.00105816
0.000705229
0.000329993
0.00049215
0.000690474
0.000376612
7.28584e-05
0.000390798
8.83439e-05
0.000438939
0.00107488
0.00258929
0.00083365
7.95214e-05
4.74645e-05
5.69186e-05
5.00915e-05
4.79399e-05
5.00399e-05
4.08183e-05
3.43882e-05
2.12999e-05
2.48684e-05
3.20676e-05
5.33333e-05
2.32794e-05
3.99331e-05
3.112e-05
6.84498e-05
2.0425e-05
2.35468e-05
1.99373e-05
2.13864e-05
5.28685e-05
4.98555e-05
1.67012e-05
2.11293e-05
1.97614e-05
1.48246e-05
1.37834e-05
2.86633e-06
2.69059e-06
4.00359e-06
3.54413e-06
3.94175e-06
3.7852e-06
3.3391e-06
3.1894e-06
3.48381e-06
2.38542e-06
2.42524e-06
1.97854e-06
1.27512e-06
1.80382e-06
1.07029e-06
4.42942e-06
9.29031e-07
8.77205e-07
8.16227e-07
7.21606e-07
6.39292e-07
5.95807e-07
7.38892e-07
303.532
245.663
250.651
247.667
219.15
266.238
279.307
278.677
230.235
273.134
226.439
301.724
280.611
292.825
318.003
193.456
283.882
261.206
210.89
248.603
232.037
261.927
253.188
259.507
270.13
265.626
252.056
220.427
256.325
78.1181
224.061
196.348
244.529
235.913
205.698
209.537
246.759
240.613
142.737
43.1809
43.5879
193.967
20.3149
27.9831
3.3631
1.32488
2.10328
1.33646
1.09866
1.16475
0.723661
0.377075
0.704731
0.692158
0.464881
0.30342
0.0954141
0.163386
0.0429598
0.187619
0.0108168
0.0064345
0.000674238
0.000373561
0.0002792
0.000289622
0.000307198
0.00023575
0.000218941
0.00022013
0.000117268
0.000103946
0.000207047
0.000178492
0.000190301
0.000420057
0.00808406
0.00132905
0.00134173
0.000305373
0.000183472
0.000117839
0.000126934
3.35388e-05
3.07523e-05
3.75696e-05
2.93505e-05
1.79138e-05
2.24663e-05
3.0284e-05
5.54594e-05
5.96938e-05
4.73597e-05
7.9817e-05
6.00612e-05
1.90871e-05
3.88476e-05
4.07446e-05
4.01044e-05
4.82491e-05
4.65608e-05
1.65888e-05
4.96817e-06
6.42989e-06
1.65287e-06
6.66788e-07
7.0854e-07
1.99506e-06
2.59191e-06
2.31797e-06
2.61614e-06
1.21247e-06
1.00767e-06
1.96328e-06
1.77859e-06
1.41661e-06
1.15668e-06
1.31105e-06
9.23368e-07
8.62871e-07
7.99953e-07
8.74738e-07
7.29938e-07
8.22485e-07
7.10391e-07
8.04908e-07
7.87529e-07
7.51481e-07
287.589
313.339
287.037
281.447
280.773
251.995
272.862
296.163
298.729
240.794
265.449
199.554
257.945
240.968
278.29
302.813
283.226
277.265
227.38
281.813
196.578
258.349
182.265
87.5097
228.111
78.7207
229.335
234.965
241.543
239.217
211.989
228.72
241.472
241.575
218.909
228.001
241.325
197.741
122.177
200.988
211.825
248.158
27.0913
12.3856
1.65144
1.58799
1.34872
1.64244
1.20057
9.40294
1.3144
0.0945345
0.9861
1.26569
1.02473
0.8948
0.232566
0.265819
0.2548
1.58605
0.0122407
0.00290769
0.00260932
0.00173486
0.00035537
0.000332447
0.000429214
0.00034274
0.000360576
0.000103011
0.000139774
9.69262e-05
0.000251972
0.000202091
1.69545e-05
5.52277e-05
1.60749e-05
5.02908e-05
3.55031e-05
2.21574e-05
2.80239e-05
0.00014056
0.000143702
0.000162044
0.000120314
4.07501e-05
2.64062e-05
2.35851e-05
7.24018e-05
6.1322e-05
8.88044e-05
0.00010703
0.000133789
9.49273e-05
8.77576e-05
8.13638e-05
8.27096e-05
7.83133e-05
8.14742e-05
8.13704e-05
7.89844e-05
6.41383e-05
4.88882e-05
5.72175e-06
3.47504e-06
3.5794e-06
3.22114e-06
2.68387e-06
2.73213e-06
2.01166e-06
2.06438e-06
3.08431e-06
2.89994e-06
2.67196e-06
2.53894e-06
2.23364e-06
1.98443e-06
1.99695e-06
1.79436e-06
1.54085e-06
6.97767e-07
1.15158e-06
1.04434e-06
3.53035e-06
2.66903e-06
1.00979e-06
2.56214e-06
9.71032e-07
293.319
303.679
308.058
290.913
297.221
281.824
316.998
264.975
296.774
282.924
281.042
250.747
256.514
284.394
265.014
256.927
253.67
262.832
278.206
287.239
266.269
255.898
110.078
166.79
82.9587
83.7635
80.4082
64.366
63.6377
54.197
239.733
210.368
237.055
188.432
241.776
31.0699
197.635
39.0506
215.582
52.1472
42.9803
18.7077
25.7926
24.492
20.7477
2.00067
1.58812
6.03915
4.71129
0.397915
0.182945
1.38747
1.42329
1.6571
1.19583
1.68019
9.02897
8.07749
10.5673
7.0543
0.301406
0.254808
0.21183
0.153391
0.112916
0.0188173
0.0250168
0.000460449
0.000410813
0.000460286
0.000456162
0.000202013
6.63879e-05
0.000174612
5.8071e-05
0.000340118
8.0524e-06
1.10345e-05
8.63928e-06
6.06659e-06
2.237e-05
2.55265e-05
2.53319e-05
0.00014596
0.000133685
0.00011388
0.000107001
7.06211e-05
0.00012955
0.000106253
0.000124084
0.000124618
0.000123026
0.000128038
0.000121841
0.00012657
0.000120241
6.73802e-05
6.59863e-05
6.16427e-05
5.9515e-05
5.66908e-05
5.37583e-05
3.20334e-05
3.71082e-06
2.83792e-06
3.05192e-06
2.8119e-06
2.80017e-06
2.79134e-06
2.63417e-06
2.68048e-06
2.51059e-06
2.55919e-06
2.39902e-06
2.42157e-06
2.23324e-06
2.13594e-06
1.9137e-06
1.80876e-06
1.95718e-06
7.30802e-07
2.44927e-06
2.76899e-06
2.15965e-06
3.14463e-06
3.65941e-06
2.6093e-06
283.139
308.285
274.514
274.066
258.611
272.985
301.403
303.611
258.843
300.339
293.312
286.463
307.785
321.835
266.848
277.297
271.963
288.59
289.137
280.581
260.284
209.451
226.237
238.059
107.056
259.502
94.5479
224.732
96.3217
90.5981
87.9563
62.3596
63.0243
55.725
51.387
36.6831
33.7275
31.06
33.9453
24.8174
17.7418
22.5121
23.5033
21.5631
9.35076
13.1919
13.4956
12.3261
11.8872
34.5433
30.8962
21.3002
17.9828
15.8889
12.4745
8.97606
6.7633
2.54336
3.04109
1.9912
0.508227
0.754378
0.25016
0.104588
0.079741
0.0368371
0.0179513
0.024348
0.0216133
0.000367948
0.000450122
7.50761e-05
2.17009e-05
2.91585e-05
3.43264e-05
4.34114e-05
2.51271e-05
2.05434e-05
1.60212e-05
6.0186e-06
1.77426e-05
2.18195e-05
2.12547e-05
2.14825e-05
1.80225e-05
6.43714e-05
9.09617e-06
0.000109149
0.000107767
0.000119267
0.000116507
9.97859e-05
9.98084e-05
7.34063e-05
5.82254e-05
1.82649e-05
3.13355e-05
3.47264e-05
3.09528e-05
4.07632e-06
3.60472e-06
4.22547e-05
3.77599e-05
2.66854e-05
3.71782e-06
3.68519e-06
2.12303e-06
3.91953e-06
2.06352e-06
2.21326e-06
2.05759e-06
2.1768e-06
2.03522e-06
2.1922e-06
2.06882e-06
2.12689e-06
1.95793e-06
1.75746e-06
1.53879e-06
1.09819e-06
6.80726e-07
4.37493e-07
1.01781e-06
5.65574e-07
6.32795e-07
1.58019e-06
4.59816e-06
5.20084e-06
319.348
317.444
289.983
307.772
260.948
289.976
290.013
274.914
248.053
249.665
276.622
276.424
322.607
308.915
293.382
293.622
312.003
319.293
295.918
273.65
240.518
263.175
254.017
298.71
269.207
306.958
233.008
267.816
94.8004
90.2869
86.8234
62.7244
57.5101
45.5187
38.5603
39.0835
37.6473
28.9397
27.059
19.8466
12.5916
20.8211
12.9082
37.9086
16.1124
46.8945
37.4316
57.633
53.5894
45.1821
34.8523
31.3951
21.2241
5.09038
3.07591
3.89645
3.25173
3.26671
2.70286
0.899648
2.23005
2.4679
0.317327
2.33143
0.181692
1.50378
0.00120714
0.000417969
0.000108324
0.000138035
3.67882e-05
0.00028766
6.54893e-06
6.21099e-06
6.31585e-06
2.51375e-05
5.87346e-06
2.88196e-05
2.89633e-05
1.97808e-05
2.53891e-05
1.98544e-05
2.1505e-05
2.0327e-05
1.52239e-05
1.33629e-05
1.30414e-05
4.37998e-06
2.3479e-05
2.92864e-05
4.49246e-05
2.73833e-05
3.19204e-05
2.64593e-06
7.37052e-09
9.3022e-09
1.34817e-08
3.73784e-05
3.35774e-05
4.0667e-05
3.85254e-05
6.94001e-06
1.00286e-06
2.42315e-06
1.92975e-06
1.11147e-06
1.11301e-06
1.2353e-06
1.25122e-06
2.20278e-06
2.11464e-06
1.76123e-06
1.63938e-06
1.77139e-06
1.67063e-06
1.59704e-06
1.45647e-06
1.54442e-06
1.35823e-06
1.16853e-06
8.96978e-07
5.62914e-07
3.21005e-07
4.96589e-07
5.88621e-07
6.94728e-07
8.36212e-07
5.2173e-06
326.627
335.589
317.762
330.106
307.034
308.209
281.363
286.556
254.566
278.146
266.171
278.183
286.708
274.985
270.933
266.672
311.36
236.728
284.059
294.566
278.502
304.859
311.982
310.962
335.933
340.643
305.6
300.88
34.9511
23.9972
67.6051
65.5883
48.4602
36.7196
24.0286
25.7241
26.3777
31.4121
24.6192
40.0613
42.5046
42.3218
48.3998
48.4105
50.0522
48.2911
55.9561
43.6311
57.8665
222.619
37.3268
162.885
10.4566
7.88214
7.14871
1.52336
3.69748
3.78769
2.6409
1.3344
2.8661
0.471736
2.38177
0.776634
0.00082698
0.000790585
0.000101522
2.57542e-05
1.24249e-05
7.83767e-05
0.000207718
0.00027026
0.000180105
2.74482e-05
2.81979e-05
2.43992e-05
6.75924e-06
6.23748e-06
1.33208e-05
2.16372e-05
2.02751e-05
2.57454e-05
2.32698e-05
2.38807e-05
1.26059e-05
1.98455e-05
1.92301e-05
1.69955e-05
5.82255e-07
7.79779e-07
5.59906e-07
4.97183e-07
2.1475e-07
1.42636e-07
1.5597e-07
1.19454e-07
1.05329e-08
1.53034e-08
2.26499e-07
1.66168e-07
4.50121e-07
2.5837e-06
2.02292e-06
3.68495e-06
2.43851e-06
4.65777e-07
3.65452e-07
3.00634e-07
3.14398e-07
1.68984e-06
1.78537e-06
9.26402e-07
6.80152e-07
5.46551e-07
6.25088e-07
5.253e-07
5.22565e-07
6.24267e-07
1.35607e-06
1.09484e-06
2.1302e-06
1.15461e-06
2.96868e-06
4.70481e-07
3.76538e-06
3.03669e-06
3.41629e-06
3.84014e-06
342.261
349.182
339.126
331.809
325.033
321.749
312.535
321.425
309.179
331.56
295.548
309.3
275.298
275.713
264.155
230.077
220.095
153.292
269.882
274.283
297.923
252.793
320.922
300.13
355.882
346.266
327.958
333.727
203.15
64.4342
88.4135
81.5205
51.1073
51.1961
26.2549
24.8958
50.9097
41.9543
44.8187
52.0326
48.6726
38.9394
53.8582
187.095
48.6308
186.729
141.975
174.811
234.873
237.53
210.945
213.47
2.0848
0
0.698653
0.729746
1.84932
0.173941
0.280167
0.0398545
0.147139
0.147411
0.212936
0
0.00129148
0.00111833
0.000170972
7.26598e-05
6.18137e-05
7.19141e-05
0.000169424
0.000262937
0.000187973
0.00028896
0.000302339
0.000145436
2.4521e-05
1.37852e-05
2.03972e-05
2.07712e-05
1.85896e-05
2.05811e-05
1.41911e-05
2.20067e-05
8.48477e-06
8.91712e-06
1.23941e-05
1.7e-05
7.45779e-07
2.67914e-07
1.95648e-07
1.82626e-07
7.9795e-08
1.56875e-07
1.25843e-07
1.24897e-07
0
0
2.3449e-08
9.68162e-09
1.44702e-08
3.30173e-06
4.34144e-06
9.23769e-07
1.24862e-06
4.28318e-07
2.60304e-07
2.37017e-07
1.56056e-07
2.52994e-07
8.70379e-08
8.01735e-07
5.99538e-07
3.7855e-07
5.73166e-07
1.17845e-06
1.19573e-06
1.25263e-06
8.80769e-07
1.56712e-06
8.18507e-07
3.47359e-06
4.31255e-06
2.58314e-06
2.97555e-06
4.08554e-06
4.09089e-06
4.25768e-06
357.627
349.014
341.542
347.181
328.357
333.912
329.259
334.751
347.605
345.316
338.224
341.699
311.224
309.69
251.922
273.084
292.091
255.836
301.143
282.485
267.597
266.459
296.851
290.215
290.605
350.102
310.005
346.468
294.734
246.883
253.562
110.404
88.243
274.998
222.451
237.432
65.2763
63.8937
53.958
36.1707
43.3723
227.771
178.586
196.751
192.313
185.389
192.258
177.558
247.699
205.17
241.936
219.596
25.2552
17.9516
15.9773
11.737
11.1742
12.8141
9.38782
4.82901
0.106458
0.103174
0.0555069
0.0564531
0.0405564
0.00124482
0.000175776
0.0143827
1.61043e-09
3.42613e-07
5.39864e-07
5.71112e-07
7.53955e-07
5.00972e-06
6.45172e-08
0.000302318
0.000204686
5.39926e-06
4.77747e-06
2.67416e-06
1.16728e-05
1.85244e-05
1.20236e-05
1.4066e-05
1.29395e-05
7.69805e-06
1.76389e-05
7.98606e-06
2.42986e-06
1.69924e-06
1.76031e-07
8.04348e-08