# vtk DataFile Version 3.0
vtk output
ASCII
DATASET POLYDATA
POINTS 24578 float
-151.53 81.83 75.23
-146.76 79.98 77.9
-147.26 82.51 76.57
-151.22 79.35 76.36
-146.3 77.32 78.47
-150.76 76.75 77.01
-146.01 74.82 79.56
-150.4 74.19 77.98
-145.43 72.07 79.86
-149.95 71.56 78.66
-145.02 69.6 80.58
-149.55 69.11 79.46
-144.64 67.21 81.53
-149.14 66.64 80.2
-144.27 64.77 82.34
-148.68 64.12 80.8
-144.06 62.18 83.1
-148.26 61.63 81.51
-143.83 59.57 83.96
-148.2 59.14 82.73
-143.54 56.98 84.63
-148.02 56.58 83.6
-143.3 54.28 84.95
-147.52 53.77 83.62
-142.71 51.53 84.98
-147.03 50.98 83.68
-142.34 49.05 85.71
-146.66 48.52 84.06
-142.24 46.57 86.6
-146.26 46.05 84.34
-145.97 43.63 84.94
-141.82 44.09 87.11
-141.56 41.44 87.04
-145.67 41.21 85.5
-140.98 38.76 87.5
-145.29 38.66 85.7
-140.75 36.16 87.85
-144.89 36.1 85.85
-144.62 33.53 86.3
-140.46 33.57 88.45
-140.13 30.94 88.56
-144.22 30.94 86.41
-143.81 28.2 86.49
-139.84 28.2 88.9
-143.44 25.45 86.68
-139.6 25.51 89.44
-143.18 22.67 87.12
-139.22 22.78 89.44
-142.9 19.88 87.51
-138.79 20.04 89.71
-142.6 17.15 87.83
-138.39 17.32 89.75
-137.91 14.61 89.73
-142.25 14.42 88.03
-141.99 11.68 88.46
-137.6 11.89 89.94
-141.61 8.95 88.57
-137.22 9.16 90.05
-141.13 6.27 88.48
-136.86 6.45 90.3
-140.68 3.58 88.47
-136.37 3.76 90.16
-140.25 0.89 88.51
-135.88 1.07 90.03
-139.71 -1.79 88.26
-135.64 -1.76 90.02
-135.64 -4.55 89.75
-140 -4.44 88.09
-135.69 -7.09 89
-140.34 -7.12 88.03
-135.79 -9.62 88.23
-140.37 -9.69 87.25
-135.84 -12.19 87.54
-140.43 -12.27 86.54
-135.99 -14.75 87
-140.5 -14.79 85.8
-136.21 -17.35 86.64
-140.62 -17.33 85.19
-136.42 -19.93 86.21
-140.85 -19.94 84.82
-136.49 -22.42 85.34
-140.79 -22.34 83.7
-136.45 -24.91 84.43
-140.78 -24.79 82.73
-136.55 -27.44 83.74
-140.84 -27.3 81.99
-136.57 -29.97 82.98
-140.97 -29.86 81.42
-136.73 -32.54 82.43
-141.02 -32.36 80.63
-136.76 -35.12 81.64
-141.09 -34.97 79.94
-141.32 -37.69 79.69
-136.83 -37.72 80.96
-141.45 -40.33 79.13
-136.9 -40.34 80.32
-137.11 -43 79.41
-141.48 -42.91 78.35
-141.57 -45.38 77.61
-137.04 -45.54 78.64
-141.59 -47.8 76.7
-137.03 -47.91 77.56
-141.86 -50.43 76.49
-137.15 -50.39 76.9
-141.9 -52.84 75.63
-137.27 -52.84 76.11
-141.91 -55.11 74.4
-137.53 -55.19 75.26
-137.48 -57.49 74.21
-141.9 -57.35 73.07
-142.03 -59.74 72.14
-137.7 -59.92 73.43
-142.25 -62.22 71.44
-137.97 -62.48 72.92
-142.57 -64.67 70.67
-138.15 -65.14 72.4
-142.87 -67.1 69.86
-138.34 -67.41 71.12
-143.16 -69.56 69.09
-138.58 -69.8 70.17
-143.42 -71.97 68.22
-138.72 -72 68.84
-143.42 -74.03 66.78
-138.71 -74.17 67.59
-143.52 -76.26 65.69
-138.9 -76.5 66.65
-143.64 -78.59 64.8
-139.03 -78.91 65.88
-143.64 -80.66 63.43
-139.36 -81.09 64.3
-142.41 80.53 78.87
-142.88 83.09 77.59
-141.83 77.87 79.86
-141.49 75.33 80.8
-140.97 72.61 81.19
-140.47 70.13 81.77
-140.01 67.69 82.47
-139.94 65.21 83.59
-139.84 62.72 84.64
-139.44 60.04 85.13
-139.12 57.42 85.86
-138.88 54.8 86.42
-138.56 52.14 86.78
-138.19 49.56 87.25
-137.83 46.99 87.76
-137.58 44.31 88.01
-137.31 41.63 88.23
-137.03 38.95 89.21
-136.57 36.22 89.77
-136.22 33.57 90.06
-135.88 30.91 90.36
-135.74 28.24 91.1
-135.47 25.56 91.56
-134.94 22.88 91.41
-134.47 20.19 91.43
-134.08 17.49 91.57
-133.61 14.8 91.52
-133.09 12.1 91.2
-132.71 9.37 91.23
-132.3 6.67 91.32
-131.94 3.96 91.53
-131.76 1.11 91.67
-131.5 -1.71 91.62
-131.31 -4.41 90.89
-131.1 -7.09 90.13
-131.35 -9.7 89.79
-131.55 -12.29 89.33
-131.63 -14.81 88.62
-131.74 -17.34 87.96
-131.85 -19.85 87.19
-132.06 -22.42 86.66
-132.19 -25.02 86.17
-132.25 -27.57 85.48
-132.26 -30.09 84.65
-132.44 -32.72 84.26
-132.56 -35.36 83.72
-132.63 -37.97 83.04
-132.75 -40.58 81.94
-132.83 -43.16 80.72
-132.77 -45.71 79.94
-132.75 -48.3 79.25
-132.77 -50.64 78.12
-132.8 -52.99 77
-132.95 -55.32 76.2
-133.13 -57.69 75.53
-133.33 -60.11 74.69
-133.5 -62.48 73.72
-133.64 -65.09 73
-133.72 -67.59 72.04
-133.86 -69.81 70.74
-134.01 -72.03 69.43
-134.18 -74.44 68.63
-134.35 -76.86 67.84
-134.77 -79.33 66.76
-135.07 -81.54 65.2
-138.04 81.11 79.93
-138.51 83.66 78.64
-137.48 78.45 80.95
-136.81 75.7 81.58
-136.53 73.2 82.68
-136.2 70.85 83.66
-136.01 68.35 84.53
-135.78 65.76 85.17
-135.49 63.19 85.82
-135.19 60.56 86.38
-134.98 57.99 87.45
-134.76 55.37 88.25
-134.53 52.77 88.88
-134 50.11 89.1
-133.65 47.3 89.03
-133.3 44.56 89.42
-133.29 41.92 90.17
-132.89 39.2 91
-132.5 36.43 91.58
-132.05 33.68 92.21
-131.7 30.98 92.36
-131.44 28.31 92.66
-131.04 25.67 93.02
-130.62 23.02 93.01
-130.15 20.36 93.11
-129.82 17.66 93.35
-129.27 14.97 93.05
-128.74 12.27 92.73
-128.4 9.55 92.87
-127.96 6.85 92.86
-127.84 4 93.22
-127.59 1.17 93.17
-127.27 -1.64 92.97
-127.25 -4.36 92.57
-127.15 -7.08 92.07
-127.17 -9.83 91.83
-127.29 -12.38 91.16
-127.29 -14.86 90.23
-127.44 -17.42 89.6
-127.57 -19.97 88.96
-127.76 -22.53 88.35
-127.82 -25.1 87.72
-127.85 -27.64 86.95
-127.95 -30.27 86.46
-128.2 -32.95 86.24
-128.25 -35.54 85.49
-128.5 -38.26 84.8
-128.59 -40.83 83.55
-128.62 -43.36 82.3
-128.5 -45.86 81.36
-128.57 -48.51 80.64
-128.51 -50.96 79.6
-128.63 -53.39 78.68
-128.82 -55.89 78.24
-129.15 -58.39 77.85
-129.06 -60.46 76.29
-128.99 -62.4 74.44
-128.98 -64.79 73.19
-129.01 -67.15 71.96
-128.97 -69.58 70.84
-129.28 -72.05 69.98
-129.48 -74.55 69.36
-130.01 -77.21 68.65
-130.42 -79.71 67.63
-130.79 -82.03 66.21
-133.82 81.84 81.46
-134.36 84.47 80.38
-133.19 79.09 82.22
-132.49 76.28 82.7
-131.95 73.65 83.71
-131.93 71.29 85
-131.87 68.9 86.17
-131.5 66.27 86.57
-131.13 63.64 86.94
-130.87 61.02 87.58
-130.68 58.45 88.47
-130.46 55.86 89.34
-130.18 53.24 90.02
-129.88 50.44 90.31
-129.64 47.69 90.79
-129.42 44.94 91.36
-129.23 42.2 92.03
-128.71 39.37 92.41
-128.45 36.65 93.48
-128.03 33.86 94.03
-127.47 31.03 94.24
-127.19 28.41 94.71
-126.88 25.78 95.12
-126.32 23.16 94.88
-125.8 20.53 94.74
-125.36 17.84 94.64
-124.86 15.16 94.43
-124.49 12.44 94.52
-124.2 9.71 94.8
-123.95 6.88 94.78
-123.68 4.05 94.73
-123.4 1.23 94.62
-123.18 -1.6 94.69
-123.37 -4.41 94.84
-123.31 -7.12 94.32
-123.16 -9.79 93.63
-122.95 -12.42 92.76
-123.09 -14.99 92.12
-123.27 -17.57 91.56
-123.4 -20.13 90.9
-123.5 -22.66 90.14
-123.53 -25.22 89.42
-123.57 -27.78 88.7
-123.68 -30.42 88.22
-123.74 -33.02 87.62
-123.94 -35.69 86.77
-124.14 -38.36 85.91
-124.27 -40.96 84.88
-124.51 -43.67 84.17
-124.44 -46.18 83.04
-124.36 -48.68 81.9
-124.32 -51.14 80.87
-124.34 -53.66 80.01
-124.65 -56.22 79.72
-124.85 -58.64 79.12
-124.76 -60.62 77.46
-124.57 -62.46 75.52
-124.49 -64.69 73.94
-124.51 -67.1 72.74
-124.57 -69.65 71.8
-124.65 -72.26 70.99
-125.14 -74.86 70.13
-125.57 -77.36 69.04
-126.01 -79.84 67.96
-126.39 -82.16 66.58
-129.58 82.52 82.46
-130.23 85.32 82
-128.9 79.77 83.09
-128.4 77.11 83.84
-127.98 74.41 84.96
-127.56 71.77 85.9
-127.33 69.24 86.57
-127.15 66.76 87.43
-126.86 64.14 88.01
-126.52 61.49 88.81
-126.36 58.96 89.84
-126.14 56.38 90.8
-125.97 53.53 91.15
-125.51 50.64 91.5
-125.42 47.93 92.31
-125.22 45.19 93.14
-125.05 42.45 93.81
-124.64 39.66 94.38
-124.31 36.88 95.2
-123.77 34.05 95.42
-123.26 31.23 95.69
-122.78 28.52 96.11
-122.44 25.87 96.38
-121.98 23.27 96.26
-121.42 20.65 96.06
-121.04 17.96 96.08
-120.68 15.29 96.36
-120.38 12.57 96.56
-120.17 9.75 96.72
-119.91 6.93 96.66
-119.55 4.12 96.37
-119.27 1.3 96.28
-119.07 -1.54 96.32
-119.25 -4.36 96.51
-119.22 -7.1 96.08
-119.04 -9.77 95.31
-119 -12.5 94.8
-118.91 -15.21 94.19
-119.08 -17.79 93.59
-119.2 -20.38 92.98
-119.3 -22.91 92.18
-119.31 -25.47 91.43
-119.31 -28 90.63
-119.33 -30.55 89.87
-119.45 -33.15 88.84
-119.6 -35.8 87.91
-119.83 -38.5 87.17
-120.05 -41.2 86.43
-120.26 -43.87 85.57
-120.32 -46.42 84.63
-120.24 -48.94 83.59
-120.24 -51.46 82.7
-120.29 -53.99 81.83
-120.1 -56.26 80.6
-120.22 -58.48 79.45
-120.33 -60.66 78.2
-120.24 -62.81 76.84
-120.26 -65.2 75.6
-120.18 -67.48 74.2
-120.23 -70.02 73.25
-120.52 -72.67 72.16
-120.81 -75.19 70.96
-121.18 -77.58 69.65
-121.52 -79.9 68.24
-121.92 -82.27 66.97
-125.25 83.17 83.41
-125.88 85.88 82.84
-124.6 80.45 83.94
-124.22 77.72 84.75
-123.94 75.09 85.93
-123.46 72.43 86.81
-122.93 69.71 87.46
-122.73 67.14 88.15
-122.59 64.64 89.06
-122.25 62 89.9
-121.95 59.4 90.9
-121.96 56.7 91.92
-121.73 53.8 92.2
-121.47 50.99 93.04
-121.27 48.22 94.07
-121.07 45.45 94.8
-120.88 42.69 95.58
-120.53 39.9 96.26
-120.06 37.06 96.59
-119.52 34.23 96.77
-119.19 31.45 97.53
-118.64 28.71 97.7
-118.07 25.97 97.81
-117.65 23.36 97.86
-117.2 20.75 97.82
-116.76 18.09 97.81
-116.45 15.42 98.16
-116.25 12.62 98.27
-115.94 9.82 98.09
-115.72 7.01 98.16
-115.43 4.19 98.08
-115.24 1.34 98.13
-115.02 -1.5 98.11
-115.03 -4.27 97.86
-115.05 -7.04 97.62
-115.01 -9.78 97.12
-114.91 -12.5 96.46
-114.83 -15.21 95.87
-114.79 -17.94 95.36
-114.95 -20.55 94.79
-115.09 -23.14 94.17
-115.09 -25.69 93.41
-115.09 -28.25 92.66
-115.19 -30.82 91.55
-115.34 -33.43 90.58
-115.56 -36.16 89.86
-115.65 -38.76 88.81
-115.73 -41.32 87.6
-115.89 -43.96 86.62
-115.94 -46.5 85.75
-115.97 -49.02 84.82
-116.06 -51.62 84.1
-116.16 -54.22 83.41
-116 -56.46 81.98
-115.78 -58.59 80.34
-115.73 -60.7 78.9
-115.82 -63.01 77.89
-115.91 -65.56 77.02
-115.85 -67.86 75.66
-116.07 -70.39 74.35
-116.45 -73.24 73.66
-116.73 -75.78 72.45
-116.87 -78.01 70.66
-117.13 -80.1 68.85
-117.46 -82.37 67.36
-120.93 83.58 83.84
-121.35 86.18 83.25
-120.43 80.92 84.76
-120.24 78.29 85.68
-119.85 75.73 86.84
-119.39 73.08 87.68
-118.97 70.39 88.56
-118.52 67.71 89.38
-118.27 65.1 89.93
-117.89 62.43 90.71
-117.77 59.68 91.68
-117.62 56.89 92.64
-117.53 54.11 93.38
-117.25 51.28 94.27
-116.99 48.44 95.07
-116.61 45.56 95.63
-116.37 42.76 96.18
-116.01 39.98 96.85
-115.62 37.17 97.41
-115.23 34.39 98.02
-114.97 31.62 98.96
-114.53 28.91 99.33
-113.9 26.15 99.26
-113.4 23.47 99.53
-113.04 20.85 99.72
-112.61 18.2 99.71
-112.34 15.45 99.77
-112.11 12.66 99.75
-111.7 9.9 99.43
-111.54 7.08 99.65
-111.31 4.26 99.65
-111.1 1.42 99.6
-110.91 -1.42 99.76
-110.84 -4.17 99.3
-110.76 -6.92 98.71
-110.8 -9.71 98.47
-110.76 -12.46 97.96
-110.67 -15.19 97.39
-110.65 -17.93 96.92
-110.56 -20.62 96.27
-110.66 -23.19 95.59
[...]
CELL_DATA 49152
SCALARS Temperature float 1
LOOKUP_TABLE default
304.678
307.906
303.339
300.524
304.141
309.229
302.663
288.338
289.08
285.644
287.155
295.646
296.451
304.628
306.639
310.099
311.334
295.165
291.073
281.048
275.344
290.383
290.519
288.137
297.609
307.679
312.544
330.87
333.493
327.541
323.768
307.119
305.124
310.807
311.699
320.203
321.365
325.623
324.315
325.355
325.417
335.294
335.012
346.001
345.81
331.51
333.442
326.955
327.52
315.386
314.83
306.916
308.468
297.253
296.152
296.158
293.998
312.58
310.309
303.46
305.329
295.594
294.283
312.403
311.357
304.276
299.868
266.381
256.76
257.281
258.913
259.553
262.437
273.069
278.651
290.158
292.373
289.688
282.919
294.043
297.106
299.056
302.58
304.752
304.441
296.815
297.044
306.623
306.773
303.294
306.919
279.377
280.854
274.224
271.277
268.388
268.643
265.167
263.717
247.881
259.258
203.768
196.786
211.993
199.906
253.248
249.091
265.197
271.812
284.145
285.015
297.542
295.519
306.72
305.455
275.615
281.261
267.277
268.167
212.858
208.079
237.549
240.921
259.064
259.325
270.021
261.453
258.255
287.638
285.387
281.889
296.583
299.891
293.576
286.753
290.797
294.556
288.626
288.678
277.398
279.62
293.847
295.773
308.317
305.784
290.237
288.736
290.426
289.654
298.482
298.737
311.131
316.866
309.449
307.292
290.553
283.108
271.798
269.505
283.827
287.498
316.283
314.395
317.925
318.15
304.949
304.5
312.2
312.375
328.094
327.86
324.942
321.717
316.038
317.44
306.125
307.285
310.321
309.366
308.593
305.956
285.829
283.509
280.146
281.604
270.185
266.855
291.761
287.895
307.84
306.767
304.477
298.646
277.941
270.588
268.67
274.65
293.726
297.052
306.449
306.236
299.869
298.491
285.906
280.596
263.227
261.904
279.615
284.841
302.268
304.967
304.661
303.131
300.717
304.599
310.062
310.04
318.377
319.331
319.447
316.406
304.049
299.028
284.854
284.898
284.688
281.231
305.679
305.954
276.531
280.169
253.194
256.32
258.586
254.152
286.596
285.579
281.311
284.798
242.404
251.225
227.556
210.604
254.923
254.848
206.353
205.51
210.469
211.34
267.899
266.226
277.768
277.748
263.611
258.795
261.07
289.281
289.648
286.973
288.329
284.463
264.412
266.018
299.523
305.377
319.152
322.078
329.179
329.415
313.79
310.17
293.054
288.36
292.497
297.948
311.162
311.854
318.907
319.403
327.112
324.85
317.562
312.632
294.159
292.92
296.651
300.14
321.609
323.982
315.971
314.894
316.666
315.611
325.592
325.015
319.644
321.107
302.311
302.784
296.328
293.694
299.709
302.078
304.569
305.776
311.279
306.131
297.579
294.809
294.824
298.696
304.741
304.052
298.659
300.649
311.243
310.033
299.739
299.7
290.493
289.576
303.314
306.125
315.189
320.518
320.563
317.634
310.732
305.434
297.624
298.846
300.446
300.758
305.361
307.124
304.365
302.921
297.255
294.175
290.887
293.17
306.696
310.453
318.456
314.679
307.472
306.841
309.762
305.332
299.838
297.828
295.607
299.271
288.199
291.477
292.445
288.43
292.577
294.962
304.542
307.176
322.966
322.298
333.777
325.86
302.263
285.152
233.391
240.144
105.904
104.481
115.408
111.785
107.381
105.957
218.349
218.502
242.531
239.514
258.335
255.448
260.839
255.221
270.963
320.114
312.831
308.161
298.564
292.661
286.513
291.028
282.514
284.323
299.733
300.614
314.029
310.203
300.77
297.924
286.081
285.932
289.773
292.723
285.597
283.781
287.107
285.854
287.136
283.065
288.378
291.405
312.542
317.384
324.55
326.841
319.62
319.777
298.388
299.449
321.163
320.146
317.488
315.86
314.579
315.428
321.304
320.744
323.948
319.381
312.018
310.496
302.94
301.285
287.925
282.85
286.717
291.519
307.053
311.54
317.962
315.637
319.065
320.904
300.36
300.39
296.802
296.145
311.062
312.149
330.651
329.618
329.751
328.002
314.576
306.854
297.735
298.239
309.156
313.348
315.758
315.357
314.915
313.784
308.249
306.732
303.565
302.743
304.653
307.407
308.015
310.078
286.55
284.5
283.249
282.896
273.728
269.216
279.945
286.786
309.621
310.2
305.699
304.311
285.229
281.01
281.927
283.876
287.617
290.682
300.961
300.211
285.602
268.906
262.463
252.768
243.323
253.401
227.943
228.003
234.711
97.0699
259.614
260.829
264.111
265.723
253.812
254.758
203.5
204.444
192.897
184.077
192.147
310.251
289.268
281.882
275.973
276.609
290.274
299.994
304.333
304.148
281.893
274.856
242.127
236.387
268.385
271.197
281.831
286.45
291.684
294.679
300.715
300.957
304.17
300.069
287.084
284.186
284.494
287.643
303.435
303.871
314.833
314.419
314.717
313.392
322.52
323.796
313.192
312.257
294.519
294.983
298.018
300.42
293.97
294.179
286.139
282.782
288.713
289.248
286.366
288.409
293.697
292.894
318.115
316.866
322.332
322.752
319.53
318.572
316.729
315.045
306.389
305.899
306.861
308.005
307.01
308.309
309.833
305.38
308.682
305.532
302.838
305.332
317.9
320.939
319.623
319.895
318.751
318.202
319.551
318.406
317.448
317.238
316.26
315.476
312.714
312.304
302.344
297.169
281.858
279.035
274.235
275.678
281.701
283.019
296.782
298.593
292.121
289.067
298.061
298.947
302.431
305.066
310.532
312.495
312.608
316.597
241.769
254.639
151.7
142.684
219.48
228.388
270.009
283.816
299.211
301.223
291.797
294.47
293.27
294.485
283.468
284.999
255.792
256.737
230.394
233.665
163.233
163.993
195.525
269.209
275.017
276.357
272.554
276.472
279.575
285.136
290.284
287.459
284.091
279.666
273.606
273.874
263.568
264.156
283.442
285.763
287.581
289.378
285.403
285.157
288.775
284.065
279.674
282.916
306.773
309.932
315.552
315.174
310.994
310.893
314.6
313.829
318.93
319.251
295.522
294.484
292.909
293.647
318.664
317.028
304.657
305.948
293.766
293.657
300.241
300.948
307.446
309.804
307.228
309.409
313.187
312.246
310.092
308.225
294.438
292.659
300.264
299.038
307.3
309.019
316.69
316.612
313.726
313.134
294.767
290.951
298.953
298.226
308.816
310.433
305.178
304.131
304.884
306.07
307.075
307.303
309.16
309.148
315.077
315.045
314.606
314.556
316.059
314.004
305.61
304.519
306.944
309.725
317.561
316.426
304.431
299.615
277.842
274.652
267.647
266.508
269.596
269.514
275.873
278.166
292.11
290.273
302.16
291.059
284.719
277.525
249.495
243.017
225.688
222.773
266.209
263.428
292.298
286.07
288.529
294.139
276.293
278.792
304.595
301.951
301.63
296.164
270.121
263.346
227.605
229.974
188.931
230.543
235.827
242.711
269.137
274.995
284.026
287.95
286.992
282.504
281.123
281.233
292.267
294.653
295.516
294.077
276.462
273.982
270.102
271.591
269.136
268.732
261.206
259.373
287.108
290.846
292.566
293.271
278.481
276.982
263.886
263.001
246.126
245.145
244.587
243.586
260.402
259.552
290.141
290.676
300.427
296.546
308.393
306.173
295.827
297.545
306.999
305.009
316.642
315.256
315.367
317.836
306.015
306.417
299.569
297.078
290.115
292.27
301.117
298.806
303.909
304.307
298.937
299.149
308.387
304.178
295.727
291.982
275.576
275.579
288.421
288.346
294.976
296.038
296.762
298.249
299.937
298.287
292.96
291.626
288.712
286.444
286.047
287.42
291.537
290.957
300.444
302.06
302.544
304.864
305.591
300.352
293.254
288.573
278.625
281.461
279.535
279.888
279.418
277.877
275.416
278.306
272.525
273.882
263.028
255.752
272.26
270.568
277.221
284.476
293.751
297.884
292.106
293.741
266.933
264.291
264.384
264.805
251.775
259.423
247.389
240.312
273.55
258.647
245.993
243.393
237.803
243.362
211.609
244.947
260.785
263.706
262.3
263.123
262.776
264.548
259.573
255.847
262.822
267.083
281.045
282.225
289.266
285.317
280.021
283.63
291.66
291.861
280.99
280.093
273.263
272.364
274.478
275.297
276.28
274.784
263.51
261.026
252.501
253.927
259.359
259.981
278.298
276.254
284.423
284.038
301.626
301.533
275.867
274.852
276.308
273.272
279.843
283.451
285.051
284.315
296.883
293.827
309.095
308.199
306.832
305.791
300.564
299.6
307.707
311.781
305.95
305.183
298.995
299.564
295.973
297.915
271.392
271.514
280.552
281.346
289.853
292.775
288.295
286.226
290.318
292.277
302.664
306.117
315.51
314.011
315.091
309.808
295.533
293.085
290.203
290.012
283.462
281.99
283.344
282.273
281.176
282.624
274.44
267.751
271.537
272.344
284.121
290.27
291.779
291.923
290.199
288.415
286.48
287.266
280.801
280.456
264.834
264.931
276.754
275.968
291.126
297.654
303.794
301.721
291.297
288.457
277.45
275.896
278.03
274.498
252.727
262.035
123.311
167.589
120.059
117.3
99.8179
111.55
250.305
243.522
285.67
280.944
302.952
303.205
303.977
302.273
291.865
292.935
293.167
288.922
276.272
272.164
236.356
231.64
221.01
228.691
285.709
289.921
298.78
297.636
289.195
288.957
279.647
279.957
277.207
278.132
279.471
279.056
286.711
288.445
306.331
308.394
312.411
313.295
309.403
308.726
309.87
310.743
307.733
305.706
298.954
299.123
312.719
308.13
323.685
323.069
299.511
305.589
286.396
287.647
290.817
289.424
300.988
299.06
301.109
300.948
304.664
305.531
302.176
301.548
318.029
316.6
308.574
308.804
298.101
299.806
297.167
295.839
294.955
295.379
294.04
293.208
293.275
294.591
296.172
296.543
292.926
291.616
303.265
301.899
313.793
315.666
311.697
307.597
291.068
290.396
287.875
287.215
290.158
290.64
286.114
282.015
282.953
285.399
293.837
293.906
284.389
284.289
284.497
284.051
287.121
289.641
294.12
292.198
288.163
282.546
262.397
257.499
283.06
280.343
277.052
269.922
259.461
261.065
267.197
267.564
263.77
260.724
263.218
267.438
270.733
269.899
263.742
77.055
260.479
262.413
265.644
265.168
257.762
267.802
248.809
242.692
246.45
246.5
260.584
263.386
250.063
250.68
277.133
279.73
294.139
297.863
302.46
304.275
292.754
291.474
284.588
282.578
318.417
317.63
337.044
336.188
327.965
329.358
303.44
305.873
308.425
308.358
307.427
306.687
303.596
303.889
304.007
303.175
306.751
307.042
289.408
288.275
302.413
302.734
317.432
314.41
308.323
303.018
299.872
302.512
302.857
304.177
309.467
308.759
297.091
296.384
293.828
294.33
299.681
299.833
301.306
301.92
307.192
304.16
299.735
298.94
299.054
300.696
300.538
299.128
296.207
295.776
291.102
292.102
298.261
299.525
299.758
297.024
285.163
277.778
245.929
244.446
268.678
272.538
296.609
295.025
301.14
304.25
299.45
299.456
299.647
298.482
295.46
295.278
302.694
304.019
302.486
301.622
306.175
308.211
308.192
307.657
307.094
305.745
295.062
292.117
293.132
290.661
296.127
301.345
284.642
282.797
275.365
273.998
292.304
294.156
289.001
287.33
281.692
281.067
290.113
291.638
279.734
279.021
311.754
309.523
326.252
320.428
287.975
279.638
235.97
222.305
208.747
210.681
230.163
232.017
244.277
249.847
279.486
282.898
289.272
289.119
299.425
299.974
322.125
321.665
317.046
317.08
322.707
322.829
329.205
329.084
323.862
322.032
326.502
324.873
325.929
326.692
312.327
311.694
303.319
303.282
308.197
308.806
291.832
293.207
291.609
289.645
291.391
291.693
289.704
292.017
265.072
260.984
263.024
262.505
292.118
296.029
317.217
316.795
306.754
305.774
292.911
293.364
290.68
292.07
287.38
288.15
286.332
287.686
276.348
272.049
278.781
276.968
286.253
287.572
292.844
293.341
301.523
302.434
305.094
305.767
300.741
299.02
292.184
291.07
298.933
297.603
303.571
302.549
276.885
275.104
274.247
273.564
299.865
301.976
303.844
304.885
303.527
302.277
301.968
302.556
302.351
301.906
303.285
303.621
306.055
304.673
297.58
296.315
293.872
291.669
290.195
288.951
283.374
281.996
286.969
288.29
289.641
288.211
287.829
288.229
288.867
287.429
288.579
288.419
290.173
290.519
290.505
290.929
294.233
297.918
264.06
267.663
276.041
269.625
292.883
287.915
260.638
257.568
300.567
297.087
296.869
295.595
291.366
294.761
297.852
294.072
275.543
275.06
278.97
280.67
306.123
303.902
312.68
312.749
326.693
326.641
319.799
319.534
294.088
294.699
300.661
300.387
334.541
333.282
356.121
355.263
345.72
344.429
323.888
320.724
312.754
315.266
295.558
296.893
295.529
295.697
290.45
291.039
269.435
269.347
273.695
272.861
289.047
289.37
283.896
282.602
256.044
257.22
268.421
268.607
279.066
279.035
279.029
279.636
278.001
278.911
267.59
265.098
283.983
281.456
294.901
295.295
300.301
298.88
294.638
294.652
299.053
297.259
290.009
287.219
277.855
279.394
284.098
281.134
283.635
281.512
285.783
289.985
283.51
282.561
280.653
278.486
289.886
292.349
298.522
298.225
300.274
299.894
295.899
294.509
291.033
289.774
285.329
283.042
283.34
283.913
281.829
281.464
285.341
283.511
281.309
281.397
280.366
280.045
279.519
277.882
279.213
279.97
281.261
280.143
282.694
282.607
284.202
283.313
279.356
278.178
270.351
269.174
254.277
258.859
222.133
218.043
240.621
232.321
260.255
275.2
271.463
269.997
294.123
293.009
317.368
317.354
306.257
306.754
307.711
307.268
307.109
304.405
284.686
285.073
285.347
284.75
296.537
296.084
263.589
262.567
284.715
286.14
324.426
325.673
347.878
351.415
359.144
355.928
351.724
339.294
319.76
321.171
303.236
306.435
310.514
310.796
298.966
300.139
293.379
292.767
287.892
288.76
273.207
275.726
251.285
253.732
216.749
213.647
259.475
256.653
278.909
276.315
289.501
287.806
295.361
295.07
296.021
295.828
290.529
291.109
293.162
292.343
299.3
298.427
294.373
291.633
288.511
288.675
284.426
282.576
287.368
285.985
281.236
283.621
276.741
270.016
259.819
261.095
277.741
282.503
288.587
289.255
289.246
287.866
288.262
288.275
290.416
288.331
288.758
287.176
285.149
284.299
282.176
280.69
276.349
277.617
284.441
285.734
288.528
286.025
277.033
274.453
277.356
277.517
275.206
275.136
275.368
275.177
282.075
281.663
277.321
275.986
277.384
276.359
275.372
274.239
275.93
274.935
272.456
271.187
264.461
266.305
249.327
243.593
223.877
218.889
255.938
239.769
268.504
268.287
293.274
293.439
295.301
295.876
301.028
302.042
318.764
319.028
326.549
326.315
318.395
318.606
315.791
315.045
236.065
237.1
257.093
256.169
297.991
297.673
295.938
294.266
305.596
307.769
302.597
295.86
289.524
277.446
277.618
286.138
267.55
272.384
263.922
263.242
259.632
260.437
248.71
248.524
251.469
251.098
254.196
254.762
264.46
263.432
284.966
284.591
309.572
307.997
322.844
321.075
317.372
317.515
299.691
302.374
305.317
304.114
301.047
302.132
294.753
295.532
290.97
289.108
280.541
279.347
285.579
287.481
293.085
292.735
294.706
296.059
312.967
314.349
309.665
303.845
296.432
298.224
294.849
293.904
286.313
285.064
282.963
280.192
274.766
275.185
277.409
272.049
263.09
260.475
261.058
263.008
271.016
273.422
284.668
285.742
281.678
279.458
274.02
272.103
278.818
280.208
283.779
280.584
268.867
269.45
270.083
271.404
279.068
275.745
269.939
268.994
266.288
264.133
261.671
261.225
263.513
263.881
271.995
272.539
277.672
279.231
270.176
267.49
262.972
262.777
264.511
236.143
264.198
263.702
240.466
240.375
228.807
228.994
254.995
256.01
301.245
302.601
318.045
317.754
318.087
317.815
296.195
296.003
304.582
307.978
311.19
311.336
257.784
261.19
180.048
201.259
90.7872
69.405
71.9882
70.9813
162.436
138.032
199.211
215.264
268.222
274.883
277.54
273.914
244.108
243.4
234.252
234.862
252.989
250.95
275.721
274.636
290.543
290.08
295.351
296.365
297.598
297.034
297.915
294.921
289.535
287.245
294.447
296.72
289.63
288.622
287.059
287.607
287.674
288.048
283.88
283.214
288.788
290.718
300.11
299.999
295.568
294.828
297.8
299.279
303.245
299.521
290.617
286.302
290.445
295.038
296.242
295.705
293.882
293.027
286.405
284.271
284.009
284.556
279.913
275.637
280.466
279.777
277.115
277.309
271.557
273.946
280.951
278.815
278.174
276.404
273.602
276.427
290.693
287.582
273.692
267.523
261.328
265.5
266.243
265.366
254.771
251.737
265.608
265.235
261.164
260.15
262.301
262.513
262.663
263.19
266.354
267.574
278.351
276.411
265.134
265.021
270.749
271.392
271.717
204.827
47.525
34.7908
159.082
158.873
202.901
203.282
229.808
228.664
216.125
216.13
232.864
232.375
227.866
223.823
202.756
204.736
241.788
243.559
194.108
193.01
195.587
200.747
165.912
63.4587
94.8229
87.2336
98.8993
99.8837
99.8408
100.37
106.767
82.6745
213.398
210.504
228.124
222.99
236.765
239.561
265.166
264.94
282.449
281.39
286.739
286.655
284.566
284.711
280.481
282.099
256.41
257.892
239.672
234.349
257.605
253.807
262.369
263.046
255.931
255.247
272.584
271.231
271.623
271.359
271.247
272.176
284.26
285.451
289.879
288.59
289.766
289.553
288.285
288.369
280.767
280.327
303.482
302.178
303.85
302.343
283.675
282.426
282.45
281.588
280.066
280.527
284.69
288.75
304.14
303.201
308.232
302.643
291.086
291.774
291.503
290.077
271.721
267.841
270.549
269.858
273.392
273.514
252.859
246.135
256.319
258.125
274.582
279.284
277.871
274.988
266.853
264.444
256.91
255.433
264.809
264.971
265.635
264.232
258.569
257.866
251.697
251.852
249.026
245.057
253.314
254.817
247.402
247.002
248.774
169.207
39.247
44.9405
43.3197
34.8735
36.0291
40.7121
49.0356
49.245
54.3311
56.6599
53.8152
67.6732
47.9533
62.108
192.064
203.358
229.408
229.173
238.578
235.805
230.661
229.196
189.203
63.3944
74.6609
69.6775
77.9619
75.383
78.0645
77.6518
78.7307
74.5761
76.3256
87.7762
82.1216
89.2058
245.94
251.635
276.032
275.198
278.029
276.703
272.19
272.322
271.772
271.43
275.206
274.85
276.878
276.841
271.446
270.183
252.446
251.746
252.52
252.221
266.344
266.109
272.373
270.084
280.316
278.6
279.523
279.15
270.317
268.11
251.6
250.215
260.788
260.789
264.089
264.494
265.016
266.107
267.28
262.623
274.312
270.876
266.513
270.791
270.347
270.74
277.318
278.03
278.672
281.263
283.242
277.219
264.488
255.778
254.806
263.696
275.41
274.486
276.059
276.178
268.829
267.902
269.15
267.919
264.592
262.949
260.963
262.207
270.279
269.338
259.893
256.67
253.193
253.106
253.701
255.155
261.575
260
259.468
258.532
260.939
259.835
251.246
250.734
240.58
240.654
255.782
255.398
254.724
253.231
238.517
184.072
31.0903
30.7879
44.85
44.8413
39.0611
43.5062
41.7087
38.0687
34.6476
36.3525
37.4269
40.1365
37.3502
38.8163
24.5508
166.566
273.01
268.671
302.1
290.494
261.257
251.996
195.22
190.31
59.886
60.2314
49.9709
56.7403
47.7382
46.5125
46.3096
257.112
263.11
262.357
273.922
274.319
280.383
279.615
272.521
272.868
268.908
267.378
283.307
281.573
285.166
284.927
273.926
275.151
255.268
257.045
252.873
249.147
265.093
262.591
277.561
277.028
281.763
281.699
277.419
277.301
277.148
275.773
276.465
275.687
274.327
272.414
267.855
266.807
252.072
250.331
250.328
251.217
257.513
254.6
227.138
222.545
240.811
240.798
273.288
278.238
278.461
277.54
269.656
268.203
261.439
264.679
264.09
256.071
257.63
255.316
267.885
275.022
271.413
267.312
263.312
264.745
272.647
272.185
267.296
266.049
267.334
266.546
267.178
268.196
265.509
265.471
277.428
274.994
267.957
267.766
263.654
264.163
260.374
257.596
258.332
257.548
257.937
256.976
260.416
261.617
262.113
262.509
255.486
251.65
247.065
244.472
238.452
39.1826
38.3294
34.836
38.4522
37.1004
37.2439
41.5065
23.4284
24.4989
16.1489
22.0744
30.6964
32.6252
35.9353
36.7773
48.453
47.4312
53.2158
62.2879
65.9669
85.8213
85.6152
78.0554
127.41
166.975
228.212
51.9362
53.9718
52.0047
50.8694
48.4966
266.148
264.109
272.632
272.281
266.764
268.725
251.14
250.843
260.704
259.646
272.294
271.476
276.388
274.919
289.417
286.74
265.408
267.475
242.758
247.565
250.444
248.484
275.205
272.405
290.687
288.741
280.376
280.966
272.025
273.016
267.695
266.897
269.386
268.377
269.504
268.737
273.879
274.1
276.802
277.38
276.916
276.391
268.623
266.681
273.81
274.354
271.357
269.664
271.278
270.159
265.932
264.065
260.029
259.361
256.91
260.255
250.856
246.133
267.033
265.581
269.927
271.858
262.168
258.716
260.127
261.218
254.484
253.709
261.696
260.675
257.313
256.034
255.458
257.661
263.727
262.954
255.417
249.448
246.793
250.152
258.98
259.241
252.826
250.574
250.717
249.758
250.549
249.867
251.976
252.511
252.368
252.357
250.311
246.906
242.2
240.45
240.648
39.7973
38.0802
36.0385
12.8092
14.4437
33.9171
31.6343
25.8038
28.2824
27.2089
28.6206
35.1384
34.3882
44.3214
46.599
48.6201
52.1894
57.9051
63.0622
69.3538
69.4157
78.8127
76.2334
47.934
219.406
262.824
261.262
277.48
47.2282
54.1087
292.43
287.529
287.295
270.571
271.891
261.141
262.662
241.53
245.306
251.031
250.806
262.069
260.904
266.476
265.918
239.845
235.571
242.693
242.064
264.538
266.22
285.554
284.783
295.798
294.35
273.776
272.94
266.452
266.641
277.25
276.417
271.275
271.458
266.583
265.957
264.95
265.183
271.727
271.507
274.35
274.035
271.716
270.307
264.377
263.996
266.062
265.533
265.534
264.53
266.082
264.585
264.288
262.86
260.796
261.175
262.469
263.562
245.654
240.509
229.434
226.154
246.614
249.172
256.055
255.817
262.21