# vtk DataFile Version 3.0
vtk output
ASCII
DATASET POLYDATA
POINTS 24578 float
-151.53 81.83 75.23
-146.76 79.98 77.9
-147.26 82.51 76.57
-151.22 79.35 76.36
-146.3 77.32 78.47
-150.76 76.75 77.01
-146.01 74.82 79.56
-150.4 74.19 77.98
-145.43 72.07 79.86
-149.95 71.56 78.66
-145.02 69.6 80.58
-149.55 69.11 79.46
-144.64 67.21 81.53
-149.14 66.64 80.2
-144.27 64.77 82.34
-148.68 64.12 80.8
-144.06 62.18 83.1
-148.26 61.63 81.51
-143.83 59.57 83.96
-148.2 59.14 82.73
-143.54 56.98 84.63
-148.02 56.58 83.6
-143.3 54.28 84.95
-147.52 53.77 83.62
-142.71 51.53 84.98
-147.03 50.98 83.68
-142.34 49.05 85.71
-146.66 48.52 84.06
-142.24 46.57 86.6
-146.26 46.05 84.34
-145.97 43.63 84.94
-141.82 44.09 87.11
-141.56 41.44 87.04
-145.67 41.21 85.5
-140.98 38.76 87.5
-145.29 38.66 85.7
-140.75 36.16 87.85
-144.89 36.1 85.85
-144.62 33.53 86.3
-140.46 33.57 88.45
-140.13 30.94 88.56
-144.22 30.94 86.41
-143.81 28.2 86.49
-139.84 28.2 88.9
-143.44 25.45 86.68
-139.6 25.51 89.44
-143.18 22.67 87.12
-139.22 22.78 89.44
-142.9 19.88 87.51
-138.79 20.04 89.71
-142.6 17.15 87.83
-138.39 17.32 89.75
-137.91 14.61 89.73
-142.25 14.42 88.03
-141.99 11.68 88.46
-137.6 11.89 89.94
-141.61 8.95 88.57
-137.22 9.16 90.05
-141.13 6.27 88.48
-136.86 6.45 90.3
-140.68 3.58 88.47
-136.37 3.76 90.16
-140.25 0.89 88.51
-135.88 1.07 90.03
-139.71 -1.79 88.26
-135.64 -1.76 90.02
-135.64 -4.55 89.75
-140 -4.44 88.09
-135.69 -7.09 89
-140.34 -7.12 88.03
-135.79 -9.62 88.23
-140.37 -9.69 87.25
-135.84 -12.19 87.54
-140.43 -12.27 86.54
-135.99 -14.75 87
-140.5 -14.79 85.8
-136.21 -17.35 86.64
-140.62 -17.33 85.19
-136.42 -19.93 86.21
-140.85 -19.94 84.82
-136.49 -22.42 85.34
-140.79 -22.34 83.7
-136.45 -24.91 84.43
-140.78 -24.79 82.73
-136.55 -27.44 83.74
-140.84 -27.3 81.99
-136.57 -29.97 82.98
-140.97 -29.86 81.42
-136.73 -32.54 82.43
-141.02 -32.36 80.63
-136.76 -35.12 81.64
-141.09 -34.97 79.94
-141.32 -37.69 79.69
-136.83 -37.72 80.96
-141.45 -40.33 79.13
-136.9 -40.34 80.32
-137.11 -43 79.41
-141.48 -42.91 78.35
-141.57 -45.38 77.61
-137.04 -45.54 78.64
-141.59 -47.8 76.7
-137.03 -47.91 77.56
-141.86 -50.43 76.49
-137.15 -50.39 76.9
-141.9 -52.84 75.63
-137.27 -52.84 76.11
-141.91 -55.11 74.4
-137.53 -55.19 75.26
-137.48 -57.49 74.21
-141.9 -57.35 73.07
-142.03 -59.74 72.14
-137.7 -59.92 73.43
-142.25 -62.22 71.44
-137.97 -62.48 72.92
-142.57 -64.67 70.67
-138.15 -65.14 72.4
-142.87 -67.1 69.86
-138.34 -67.41 71.12
-143.16 -69.56 69.09
-138.58 -69.8 70.17
-143.42 -71.97 68.22
-138.72 -72 68.84
-143.42 -74.03 66.78
-138.71 -74.17 67.59
-143.52 -76.26 65.69
-138.9 -76.5 66.65
-143.64 -78.59 64.8
-139.03 -78.91 65.88
-143.64 -80.66 63.43
-139.36 -81.09 64.3
-142.41 80.53 78.87
-142.88 83.09 77.59
-141.83 77.87 79.86
-141.49 75.33 80.8
-140.97 72.61 81.19
-140.47 70.13 81.77
-140.01 67.69 82.47
-139.94 65.21 83.59
-139.84 62.72 84.64
-139.44 60.04 85.13
-139.12 57.42 85.86
-138.88 54.8 86.42
-138.56 52.14 86.78
-138.19 49.56 87.25
-137.83 46.99 87.76
-137.58 44.31 88.01
-137.31 41.63 88.23
-137.03 38.95 89.21
-136.57 36.22 89.77
-136.22 33.57 90.06
-135.88 30.91 90.36
-135.74 28.24 91.1
-135.47 25.56 91.56
-134.94 22.88 91.41
-134.47 20.19 91.43
-134.08 17.49 91.57
-133.61 14.8 91.52
-133.09 12.1 91.2
-132.71 9.37 91.23
-132.3 6.67 91.32
-131.94 3.96 91.53
-131.76 1.11 91.67
-131.5 -1.71 91.62
-131.31 -4.41 90.89
-131.1 -7.09 90.13
-131.35 -9.7 89.79
-131.55 -12.29 89.33
-131.63 -14.81 88.62
-131.74 -17.34 87.96
-131.85 -19.85 87.19
-132.06 -22.42 86.66
-132.19 -25.02 86.17
-132.25 -27.57 85.48
-132.26 -30.09 84.65
-132.44 -32.72 84.26
-132.56 -35.36 83.72
-132.63 -37.97 83.04
-132.75 -40.58 81.94
-132.83 -43.16 80.72
-132.77 -45.71 79.94
-132.75 -48.3 79.25
-132.77 -50.64 78.12
-132.8 -52.99 77
-132.95 -55.32 76.2
-133.13 -57.69 75.53
-133.33 -60.11 74.69
-133.5 -62.48 73.72
-133.64 -65.09 73
-133.72 -67.59 72.04
-133.86 -69.81 70.74
-134.01 -72.03 69.43
-134.18 -74.44 68.63
-134.35 -76.86 67.84
-134.77 -79.33 66.76
-135.07 -81.54 65.2
-138.04 81.11 79.93
-138.51 83.66 78.64
-137.48 78.45 80.95
-136.81 75.7 81.58
-136.53 73.2 82.68
-136.2 70.85 83.66
-136.01 68.35 84.53
-135.78 65.76 85.17
-135.49 63.19 85.82
-135.19 60.56 86.38
-134.98 57.99 87.45
-134.76 55.37 88.25
-134.53 52.77 88.88
-134 50.11 89.1
-133.65 47.3 89.03
-133.3 44.56 89.42
-133.29 41.92 90.17
-132.89 39.2 91
-132.5 36.43 91.58
-132.05 33.68 92.21
-131.7 30.98 92.36
-131.44 28.31 92.66
-131.04 25.67 93.02
-130.62 23.02 93.01
-130.15 20.36 93.11
-129.82 17.66 93.35
-129.27 14.97 93.05
-128.74 12.27 92.73
-128.4 9.55 92.87
-127.96 6.85 92.86
-127.84 4 93.22
-127.59 1.17 93.17
-127.27 -1.64 92.97
-127.25 -4.36 92.57
-127.15 -7.08 92.07
-127.17 -9.83 91.83
-127.29 -12.38 91.16
-127.29 -14.86 90.23
-127.44 -17.42 89.6
-127.57 -19.97 88.96
-127.76 -22.53 88.35
-127.82 -25.1 87.72
-127.85 -27.64 86.95
-127.95 -30.27 86.46
-128.2 -32.95 86.24
-128.25 -35.54 85.49
-128.5 -38.26 84.8
-128.59 -40.83 83.55
-128.62 -43.36 82.3
-128.5 -45.86 81.36
-128.57 -48.51 80.64
-128.51 -50.96 79.6
-128.63 -53.39 78.68
-128.82 -55.89 78.24
-129.15 -58.39 77.85
-129.06 -60.46 76.29
-128.99 -62.4 74.44
-128.98 -64.79 73.19
-129.01 -67.15 71.96
-128.97 -69.58 70.84
-129.28 -72.05 69.98
-129.48 -74.55 69.36
-130.01 -77.21 68.65
-130.42 -79.71 67.63
-130.79 -82.03 66.21
-133.82 81.84 81.46
-134.36 84.47 80.38
-133.19 79.09 82.22
-132.49 76.28 82.7
-131.95 73.65 83.71
-131.93 71.29 85
-131.87 68.9 86.17
-131.5 66.27 86.57
-131.13 63.64 86.94
-130.87 61.02 87.58
-130.68 58.45 88.47
-130.46 55.86 89.34
-130.18 53.24 90.02
-129.88 50.44 90.31
-129.64 47.69 90.79
-129.42 44.94 91.36
-129.23 42.2 92.03
-128.71 39.37 92.41
-128.45 36.65 93.48
-128.03 33.86 94.03
-127.47 31.03 94.24
-127.19 28.41 94.71
-126.88 25.78 95.12
-126.32 23.16 94.88
-125.8 20.53 94.74
-125.36 17.84 94.64
-124.86 15.16 94.43
-124.49 12.44 94.52
-124.2 9.71 94.8
-123.95 6.88 94.78
-123.68 4.05 94.73
-123.4 1.23 94.62
-123.18 -1.6 94.69
-123.37 -4.41 94.84
-123.31 -7.12 94.32
-123.16 -9.79 93.63
-122.95 -12.42 92.76
-123.09 -14.99 92.12
-123.27 -17.57 91.56
-123.4 -20.13 90.9
-123.5 -22.66 90.14
-123.53 -25.22 89.42
-123.57 -27.78 88.7
-123.68 -30.42 88.22
-123.74 -33.02 87.62
-123.94 -35.69 86.77
-124.14 -38.36 85.91
-124.27 -40.96 84.88
-124.51 -43.67 84.17
-124.44 -46.18 83.04
-124.36 -48.68 81.9
-124.32 -51.14 80.87
-124.34 -53.66 80.01
-124.65 -56.22 79.72
-124.85 -58.64 79.12
-124.76 -60.62 77.46
-124.57 -62.46 75.52
-124.49 -64.69 73.94
-124.51 -67.1 72.74
-124.57 -69.65 71.8
-124.65 -72.26 70.99
-125.14 -74.86 70.13
-125.57 -77.36 69.04
-126.01 -79.84 67.96
-126.39 -82.16 66.58
-129.58 82.52 82.46
-130.23 85.32 82
-128.9 79.77 83.09
-128.4 77.11 83.84
-127.98 74.41 84.96
-127.56 71.77 85.9
-127.33 69.24 86.57
-127.15 66.76 87.43
-126.86 64.14 88.01
-126.52 61.49 88.81
-126.36 58.96 89.84
-126.14 56.38 90.8
-125.97 53.53 91.15
-125.51 50.64 91.5
-125.42 47.93 92.31
-125.22 45.19 93.14
-125.05 42.45 93.81
-124.64 39.66 94.38
-124.31 36.88 95.2
-123.77 34.05 95.42
-123.26 31.23 95.69
-122.78 28.52 96.11
-122.44 25.87 96.38
-121.98 23.27 96.26
-121.42 20.65 96.06
-121.04 17.96 96.08
-120.68 15.29 96.36
-120.38 12.57 96.56
-120.17 9.75 96.72
-119.91 6.93 96.66
-119.55 4.12 96.37
-119.27 1.3 96.28
-119.07 -1.54 96.32
-119.25 -4.36 96.51
-119.22 -7.1 96.08
-119.04 -9.77 95.31
-119 -12.5 94.8
-118.91 -15.21 94.19
-119.08 -17.79 93.59
-119.2 -20.38 92.98
-119.3 -22.91 92.18
-119.31 -25.47 91.43
-119.31 -28 90.63
-119.33 -30.55 89.87
-119.45 -33.15 88.84
-119.6 -35.8 87.91
-119.83 -38.5 87.17
-120.05 -41.2 86.43
-120.26 -43.87 85.57
-120.32 -46.42 84.63
-120.24 -48.94 83.59
-120.24 -51.46 82.7
-120.29 -53.99 81.83
-120.1 -56.26 80.6
-120.22 -58.48 79.45
-120.33 -60.66 78.2
-120.24 -62.81 76.84
-120.26 -65.2 75.6
-120.18 -67.48 74.2
-120.23 -70.02 73.25
-120.52 -72.67 72.16
-120.81 -75.19 70.96
-121.18 -77.58 69.65
-121.52 -79.9 68.24
-121.92 -82.27 66.97
-125.25 83.17 83.41
-125.88 85.88 82.84
-124.6 80.45 83.94
-124.22 77.72 84.75
-123.94 75.09 85.93
-123.46 72.43 86.81
-122.93 69.71 87.46
-122.73 67.14 88.15
-122.59 64.64 89.06
-122.25 62 89.9
-121.95 59.4 90.9
-121.96 56.7 91.92
-121.73 53.8 92.2
-121.47 50.99 93.04
-121.27 48.22 94.07
-121.07 45.45 94.8
-120.88 42.69 95.58
-120.53 39.9 96.26
-120.06 37.06 96.59
-119.52 34.23 96.77
-119.19 31.45 97.53
-118.64 28.71 97.7
-118.07 25.97 97.81
-117.65 23.36 97.86
-117.2 20.75 97.82
-116.76 18.09 97.81
-116.45 15.42 98.16
-116.25 12.62 98.27
-115.94 9.82 98.09
-115.72 7.01 98.16
-115.43 4.19 98.08
-115.24 1.34 98.13
-115.02 -1.5 98.11
-115.03 -4.27 97.86
-115.05 -7.04 97.62
-115.01 -9.78 97.12
-114.91 -12.5 96.46
-114.83 -15.21 95.87
-114.79 -17.94 95.36
-114.95 -20.55 94.79
-115.09 -23.14 94.17
-115.09 -25.69 93.41
-115.09 -28.25 92.66
-115.19 -30.82 91.55
-115.34 -33.43 90.58
-115.56 -36.16 89.86
-115.65 -38.76 88.81
-115.73 -41.32 87.6
-115.89 -43.96 86.62
-115.94 -46.5 85.75
-115.97 -49.02 84.82
-116.06 -51.62 84.1
-116.16 -54.22 83.41
-116 -56.46 81.98
-115.78 -58.59 80.34
-115.73 -60.7 78.9
-115.82 -63.01 77.89
-115.91 -65.56 77.02
-115.85 -67.86 75.66
-116.07 -70.39 74.35
-116.45 -73.24 73.66
-116.73 -75.78 72.45
-116.87 -78.01 70.66
-117.13 -80.1 68.85
-117.46 -82.37 67.36
-120.93 83.58 83.84
-121.35 86.18 83.25
-120.43 80.92 84.76
-120.24 78.29 85.68
-119.85 75.73 86.84
-119.39 73.08 87.68
-118.97 70.39 88.56
-118.52 67.71 89.38
-118.27 65.1 89.93
-117.89 62.43 90.71
-117.77 59.68 91.68
-117.62 56.89 92.64
-117.53 54.11 93.38
-117.25 51.28 94.27
-116.99 48.44 95.07
-116.61 45.56 95.63
-116.37 42.76 96.18
-116.01 39.98 96.85
-115.62 37.17 97.41
-115.23 34.39 98.02
-114.97 31.62 98.96
-114.53 28.91 99.33
-113.9 26.15 99.26
-113.4 23.47 99.53
-113.04 20.85 99.72
-112.61 18.2 99.71
-112.34 15.45 99.77
-112.11 12.66 99.75
-111.7 9.9 99.43
-111.54 7.08 99.65
-111.31 4.26 99.65
-111.1 1.42 99.6
-110.91 -1.42 99.76
-110.84 -4.17 99.3
-110.76 -6.92 98.71
-110.8 -9.71 98.47
-110.76 -12.46 97.96
-110.67 -15.19 97.39
-110.65 -17.93 96.92
-110.56 -20.62 96.27
-110.66 -23.19 95.59
[...]
CELL_DATA 49152
SCALARS Temperature float 1
LOOKUP_TABLE default
153.657
36.549
15.0079
9.37322
4.00658
2.91861
13.6394
13.427
10.526
14.8159
13.755
13.5392
12.5968
9.40767
1.89604
2.38717
2.79779
9.24024
13.2379
14.1777
14.0465
7.57318
0.812279
0.694764
1.29414
1.38927
1.48074
1.04751
1.2778
1.18515
0.692531
0.790643
0.434049
0.302319
0.584121
0.424374
0.612269
0.819482
0.44969
0.35234
0.267865
0.564608
0.41405
0.628054
0.491872
0.187968
0.413659
0.358504
0.349265
0.0379056
0.0529191
0.0460914
0.244053
0.00686082
0.00420784
0.00413608
0.00131371
0.00406175
0.0134068
0.00140087
0.000780147
0.00107202
0.00104319
0.00140976
0.00400968
0.00328919
9.767e-05
0.000237555
0.000206938
0.000190002
0.000188427
0.000175328
0.000178398
0.000133281
0.000166177
0.000107066
0.000134624
0.000140518
2.32171e-05
0.000185302
0.000130677
2.63315e-05
3.9801e-05
4.56532e-05
3.97863e-05
5.15631e-05
5.53054e-05
4.09515e-05
4.03525e-05
4.97907e-05
7.52761e-05
1.78146e-05
4.93153e-05
1.98009e-05
1.02232e-05
2.8228e-05
2.86295e-05
6.97385e-06
9.19563e-06
6.79235e-06
7.85968e-06
3.02077e-06
3.88278e-06
2.50458e-06
2.37495e-06
1.72689e-06
1.2616e-06
8.25582e-07
8.95033e-07
1.09679e-06
1.29555e-06
1.65937e-06
1.20484e-06
1.6596e-06
8.59913e-07
2.56464e-07
3.10912e-07
3.66e-07
4.85565e-07
3.90776e-07
3.50356e-07
2.79838e-07
3.39346e-07
3.53553e-07
3.70334e-07
3.97564e-07
6.76219e-08
7.31414e-08
23.2605
222.56
19.8579
20.4937
9.36898
9.18977
23.4067
16.5694
3.8774
4.71352
4.16555
5.08557
5.13009
13.2122
10.1438
2.17913
9.18714
14.3436
13.8142
12.9928
0.793829
2.01412
1.48072
1.12548
1.66683
1.48595
1.80005
4.55217
4.33637
4.6912
0.351618
2.22095
0.572779
0.65476
0.646813
0.733035
0.783998
0.167953
0.186146
0.178166
0.342018
0.783903
0.733004
0.66521
0.0445085
0.0216886
0.0307008
0.0125465
0.00557991
0.0268977
0.0265219
0.0285397
0.00162943
0.00321182
0.00305286
0.00373894
0.00402557
0.00316765
0.00270814
0.00323601
0.00138803
0.00353047
0.00228417
0.000816919
0.000524256
0.000423931
0.000255279
0.000232396
0.000246041
0.000128996
0.000178487
5.1855e-05
4.50985e-05
0.000117506
4.70706e-05
0.000153358
4.92708e-05
0.000143796
6.06612e-05
3.26655e-05
5.41045e-05
0.000126384
2.71701e-05
3.38823e-05
2.49281e-05
2.94202e-05
5.44582e-05
5.90068e-05
5.99724e-05
5.21868e-05
5.68621e-05
5.56232e-05
1.65619e-05
4.51703e-05
1.27259e-05
1.00517e-05
8.26358e-06
7.07459e-06
7.37603e-06
8.11247e-06
7.45604e-06
3.85348e-06
3.77724e-06
1.82684e-06
1.78651e-06
1.74886e-06
1.43957e-06
1.37667e-06
1.32298e-06
1.16454e-06
1.61412e-06
8.28076e-07
1.76911e-06
1.35084e-06
3.58493e-07
3.42632e-07
4.04232e-07
3.81295e-07
3.75157e-07
3.24209e-07
3.31251e-07
3.46611e-07
3.39598e-07
3.67102e-07
3.81384e-07
3.4507e-07
9.0963e-08
7.77378e-08
20.7339
20.5605
18.141
18.6475
28.8203
25.9205
24.8693
23.4359
5.77262
3.89842
5.05058
3.81756
3.61879
4.8001
4.45954
12.6653
17.4872
15.9778
10.9069
2.47031
2.49758
2.25845
2.11032
2.00516
1.63687
1.62918
1.04847
2.26654
0.507759
0.681165
1.27417
0.703003
0.847747
1.32399
0.972404
1.02794
0.506064
1.0628
0.635803
0.373915
0.769561
0.0994606
0.32086
0.112615
0.0631866
0.0234944
0.00447205
0.00333801
0.00389708
0.00662729
0.0193575
0.00415539
0.00247924
0.00222966
0.00192237
0.0027925
0.00244585
0.00258286
0.00310988
0.00711002
0.00673578
0.00475583
0.00414156
0.00173525
0.00034839
0.000518592
0.000245961
0.000100399
0.000186021
0.000178277
5.11161e-05
7.20793e-05
3.40384e-05
2.89414e-05
2.8199e-05
3.19141e-05
2.98512e-05
2.92066e-05
3.19119e-05
2.90093e-05
2.55661e-05
5.16082e-05
2.32253e-05
3.73376e-05
4.96647e-05
2.66378e-05
5.45419e-05
6.74131e-05
4.54994e-05
5.21591e-05
4.63874e-05
4.56987e-05
1.29907e-05
1.18677e-05
1.05739e-05
1.03663e-05
9.25565e-06
7.21236e-06
6.42241e-06
6.08919e-06
5.11709e-06
5.16986e-06
4.99297e-06
4.13507e-06
4.40524e-06
5.67386e-06
4.74191e-06
5.97827e-06
8.46565e-07
8.34243e-07
3.67004e-07
2.03391e-07
2.32456e-07
1.87184e-07
3.08945e-07
2.65817e-07
3.38551e-07
1.98677e-07
2.72075e-07
2.90681e-07
3.74517e-07
3.04756e-07
4.15999e-07
4.34548e-07
3.74105e-07
3.68791e-07
2.04301e-07
4.17461e-08
32.3972
29.3871
29.5768
14.437
33.8872
31.7117
18.3483
17.3796
16.7932
26.6987
190.789
10.6696
14.9249
14.194
20.6876
19.8203
19.1779
17.6084
15.2678
16.2515
15.9348
14.6684
14.03
12.9475
8.22993
6.16631
6.35578
0.840174
0.882707
1.29038
1.53535
1.42699
1.38437
0.421121
0.398242
1.47263
1.03861
0.875101
0.190352
0.125448
0.458784
0.623649
0.518777
0.611813
0.0261419
0.0140452
0.00410399
0.00599815
0.00263846
0.00621344
0.00384238
0.00340731
0.00402558
0.00258636
0.00236017
0.00826156
0.00244607
0.00278316
0.0103262
0.00542683
0.00535051
0.0020014
0.00234022
0.00193951
0.0104726
0.00147199
0.00141958
0.000443404
7.60945e-05
0.000152687
3.89256e-05
2.63717e-05
3.2672e-05
3.14732e-05
3.51724e-05
3.54534e-05
3.26105e-05
3.33571e-05
3.38229e-05
3.05157e-05
0.00013037
0.000108174
8.99217e-05
7.8169e-05
3.27221e-05
3.13425e-05
6.27304e-05
4.03103e-05
1.53438e-05
1.53634e-05
1.33742e-05
1.98124e-05
5.82501e-06
6.36868e-06
7.81871e-06
1.05226e-05
9.51054e-06
8.81534e-06
7.6608e-06
4.93952e-06
3.59338e-06
3.61717e-06
3.65081e-06
3.98996e-06
5.06562e-06
5.71057e-06
5.61767e-06
4.18694e-06
3.04687e-07
2.70708e-07
2.55462e-07
2.35668e-07
1.02356e-07
9.62527e-08
9.6302e-08
9.32206e-08
9.86507e-08
9.40429e-08
2.74798e-07
2.78839e-07
2.92708e-07
2.82287e-07
3.75087e-07
5.45901e-07
5.97872e-07
6.52122e-07
9.27266e-07
9.27686e-07
41.1882
18.078
41.9549
37.6227
40.2682
46.0299
19.2793
13.5195
11.7915
23.0553
78.1033
268.926
241.333
30.5167
28.2287
26.6274
21.3724
18.3705
15.1856
12.2198
12.079
8.34802
11.6435
13.6851
7.92667
7.54177
6.12413
3.99203
3.79288
2.09665
1.53539
1.48331
0.541547
1.09885
1.48857
1.27675
0.727869
1.65237
2.42711
0.739075
3.31465
0.33423
0.318444
0.171279
0.1748
0.0354625
0.00437322
0.00465074
0.00497012
0.0041652
0.00430506
0.0140717
0.00947022
0.015117
0.0139551
0.0145608
0.00747782
0.00305764
0.00200588
0.00153353
0.00191603
0.00199234
0.0021979
0.00217354
0.011179
0.0116123
0.000668769
0.00101913
0.000747658
0.000210071
0.000133418
0.000179915
3.74938e-05
3.92039e-05
3.91757e-05
3.98225e-05
5.76726e-05
4.35997e-05
0.000175398
0.000169714
0.000154793
0.000143643
0.000121991
0.000106455
8.4962e-05
3.197e-05
9.10075e-06
2.02071e-05
1.27632e-05
1.56533e-05
1.37778e-05
1.23796e-05
1.25071e-05
8.0525e-06
6.772e-06
1.02606e-05
4.21769e-06
7.24472e-06
6.6339e-06
6.88979e-06
6.4517e-06
6.09344e-06
5.78252e-06
5.68305e-06
6.25794e-06
4.70428e-07
8.28964e-07
5.32001e-07
4.39512e-07
2.54761e-07
1.31784e-07
2.15906e-07
1.59414e-07
1.48636e-07
1.25847e-07
9.64563e-08
9.45525e-08
2.60795e-07
2.71312e-07
2.49663e-07
2.74951e-07
2.05933e-07
2.28351e-07
1.32719e-07
4.75798e-07
6.73576e-07
7.37671e-07
7.1998e-07
45.534
48.8735
51.231
48.6973
44.8346
48.3196
206.065
162.098
41.132
40.1477
47.3457
46.8195
36.4508
33.3763
29.141
28.5709
26.4397
23.7648
21.7437
19.4618
187.524
149.708
16.5043
15.4589
7.98123
4.12076
3.51638
3.32011
2.45984
2.77808
1.44739
1.95919
0.94598
1.21647
1.28048
3.19895
1.64032
1.99655
2.92687
0.944717
0.428856
0.0357279
0.0518531
0.14955
0.0588863
0.0217448
0.0171807
0.0138869
0.0167953
0.015678
0.0189487
0.0200872
0.0172547
0.0167078
0.00336151
0.0135962
0.00443771
0.00338315
0.00119647
0.00191227
0.00164203
0.00147348
0.00194257
0.00174132
0.00113178
0.00199453
6.20201e-05
0
8.98342e-06
0.000291174
0.000244715
9.92469e-05
3.81241e-05
2.19717e-05
6.3185e-05
6.00223e-05
0.000118394
0.000135524
0.000127952
0.000156479
0.000144941
0.000139693
0.000125535
0.000117546
9.88091e-05
6.78411e-05
1.43713e-05
4.77457e-06
1.84411e-05
4.69401e-06
5.53894e-06
3.11244e-06
1.93434e-06
1.21216e-06
1.30187e-06
7.38649e-06
1.16034e-06
9.91043e-07
9.62825e-07
1.22045e-06
9.62229e-07
3.40593e-06
3.89104e-06
5.29751e-06
2.79868e-06
4.50206e-07
1.32412e-07
1.00886e-07
1.0086e-07
3.11453e-07
1.64265e-07
1.04418e-07
2.55971e-07
3.30898e-07
1.33951e-07
1.3052e-07
2.7472e-07
2.07344e-07
2.60423e-07
3.1084e-07
2.08215e-07
2.06148e-07
1.96337e-07
1.22361e-07
2.19575e-07
5.40492e-07
5.87437e-07
7.09479e-07
199.978
175.886
231.317
56.9677
189.186
45.3488
194.868
201.378
32.5236
31.458
112.258
43.3025
37.3074
37.9921
36.4803
28.4981
31.3307
28.8513
26.8463
24.818
203.074
230.212
183.355
7.57422
7.84971
7.22662
8.7944
9.84359
8.61642
9.53176
8.3
9.08664
8.49684
8.41064
7.8235
6.46275
5.75869
5.47583
5.64944
5.68762
0.00704105
0.0236885
0.0273425
0.176673
0.0432727
0.0335675
0.0156033
0.0209665
0.0176698
0.0163567
0.0203447
0.0135397
0.0168193
0.00458204
0.00635678
0.00590391
0.00492706
0.00242688
0.00138223
0.00176382
0.00213443
0.00196955
0.00222469
0.0109172
6.86207e-06
3.92723e-06
2.1376e-05
4.47406e-05
4.62243e-05
2.74892e-05
4.56143e-06
9.51406e-06
6.62769e-06
1.05037e-05
9.99633e-06
4.02971e-05
1.53661e-05
1.62162e-05
1.4382e-05
1.4815e-05
8.53863e-06
8.96179e-06
5.68351e-06
5.05802e-06
3.0753e-06
3.97866e-05
4.20876e-05
7.86034e-06
2.0078e-05
2.12933e-05
7.9788e-06
6.40534e-06
6.81867e-06
1.33432e-06
1.41437e-06
1.23401e-06
1.15666e-06
1.0876e-06
7.60207e-07
8.73625e-07
1.08318e-06
1.01229e-06
1.06173e-06
9.50438e-07
4.60499e-07
1.08702e-07
1.31459e-07
1.48774e-07
1.56143e-07
1.49477e-07
1.63991e-07
1.54341e-07
3.03534e-07
1.8158e-07
1.51253e-07
1.43788e-07
1.30057e-07
1.79865e-07
3.16593e-07
3.2813e-07
3.12362e-07
2.7471e-07
4.02194e-07
4.4584e-07
5.00075e-07
5.24347e-07
5.40963e-07
6.30377e-07
222.002
74.6322
42.1489
203.916
40.8607
43.3304
43.6142
244.04
221.738
189.407
229.49
115.319
159.741
32.8312
38.9798
36.0109
28.9995
35.2115
35.5416
29.4695
28.4451
24.7121
15.6884
19.5927
17.2037
17.027
9.4559
9.98639
9.35087
9.37483
9.16058
8.61745
8.33704
8.07995
6.85935
6.76416
6.12814
6.1567
5.87075
5.28733
4.52145
4.1358
2.40014
0.197428
0.233383
0.340923
0.263945
0.32023
0.0143217
0.0255577
0.0137017
0.0115393
0.0172958
0.0102215
0.00701782
0.00620297
0.00184957
0.00358871
0.00197731
0.00161954
0.00116618
0.000410005
0.00262523
9.09283e-05
6.98787e-05
5.28752e-05
3.76507e-05
1.60203e-05
2.65378e-05
3.7299e-05
2.03031e-05
3.66326e-06
2.10441e-05
4.40119e-06
2.32095e-05
5.37628e-05
0.000140013
4.17586e-05
3.70869e-06
2.21303e-06
2.66236e-06
2.34177e-06
2.2378e-06
2.3354e-06
1.8974e-06
1.59742e-06
9.60417e-07
1.14275e-06
1.48496e-06
2.76829e-06
1.05362e-06
1.8877e-06
1.46183e-06
3.22846e-06
9.37962e-07
1.07641e-06
9.11723e-07
9.75101e-07
2.50747e-06
2.36407e-06
7.57693e-07
9.57876e-07
8.954e-07
6.71842e-07
6.24748e-07
1.28765e-07
1.16446e-07
1.7386e-07
1.52838e-07
1.7065e-07
1.65926e-07
1.44896e-07
1.42567e-07
1.57819e-07
1.24068e-07
1.15342e-07
1.47231e-07
8.50985e-08
2.37768e-07
3.58449e-07
4.54968e-07
6.10426e-07
7.79907e-07
6.74633e-07
7.53917e-07
6.20493e-07
5.57354e-07
2.90063e-07
234.654
58.7037
52.4432
54.5263
54.7968
47.3152
158.971
155.413
60.8191
39.5298
85.9481
37.6437
62.721
255.075
280.503
45.8956
182.421
31.6259
32.0345
30.9559
25.2557
24.55
17.0021
15.5973
14.885
15.2154
11.0569
9.29543
9.70338
6.7466
7.17934
5.96051
6.48497
6.59027
5.34784
5.17452
5.7293
5.53677
3.29294
3.14849
3.03179
3.47851
0.596319
0.756424
0.460453
0.265136
0.340555
0.29334
0.256777
0.255788
0.174254
0.142019
0.0351366
0.0345097
0.0231781
0.0151272
0.00467921
0.00811218
0.00301053
0.0129993
0.000719467
0.000316361
3.29841e-05
1.86555e-05
1.45765e-05
1.51158e-05
1.48902e-05
1.14373e-05
1.06486e-05
1.06013e-05
5.68131e-06
5.03579e-06
9.96148e-06
8.59173e-06
9.16171e-06
2.22107e-05
0.000394157
7.19199e-05
7.26126e-05
1.55107e-05
8.511e-06
5.44479e-06
5.8655e-06
1.50695e-06
1.38489e-06
1.73714e-06
1.34646e-06
8.08912e-07
1.03174e-06
1.3982e-06
2.58288e-06
2.78412e-06
2.21107e-06
3.71412e-06
2.84848e-06
8.69571e-07
1.83897e-06
1.92927e-06
1.89958e-06
2.28796e-06
2.19372e-06
7.57024e-07
2.34333e-07
2.90314e-07
7.07046e-08
2.86509e-08
3.54727e-08
8.51685e-08
1.13242e-07
1.02195e-07
2.13377e-07
2.05034e-07
2.34205e-07
1.99084e-07
2.26208e-07
2.17403e-07
1.48851e-07
1.62676e-07
1.73282e-07
1.26774e-07
1.9916e-07
2.02997e-07
4.57381e-07
5.43856e-07
6.37287e-07
7.77129e-07
6.96425e-07
8.26972e-07
220.739
267.948
238.257
228.45
227.476
154.222
199.505
246.033
249.018
55.0926
146.542
74.14
63.1582
81.0001
64.7276
64.985
42.3126
27.1494
21.6948
36.8527
33.2684
43.8724
36.0383
32.0952
30.5724
16.1274
19.558
20.332
18.242
18.0827
13.7545
12.4006
12.3586
12.687
9.06241
10.4837
10.5129
5.1631
4.23988
4.68913
4.62225
5.3615
0.8374
0.343855
0.387445
0.341947
0.254585
0.303023
0.225486
0.318206
0.214602
0.00472573
0.0491211
0.0629828
0.0510909
0.0446115
0.0115399
0.0131987
0.0135568
0.080311
0.00067094
0.000143248
0.000127101
8.37886e-05
1.72268e-05
1.62026e-05
2.0756e-05
1.65793e-05
1.74302e-05
5.04935e-06
7.2321e-06
4.88985e-06
1.22409e-05
9.83672e-06
8.1876e-07
2.70391e-06
7.71912e-07
2.42464e-06
1.71168e-06
1.06824e-06
1.3511e-06
6.4209e-06
6.66386e-06
7.50846e-06
5.5687e-06
1.83832e-06
1.19091e-06
1.06364e-06
3.3531e-06
2.85081e-06
4.11366e-06
4.96566e-06
6.21534e-06
4.38518e-06
4.05672e-06
3.78015e-06
3.82797e-06
3.63843e-06
3.771e-06
3.76531e-06
3.65577e-06
2.96893e-06
2.30607e-06
2.69207e-07
1.54438e-07
1.56676e-07
1.39841e-07
1.18076e-07
1.21466e-07
8.92685e-08
9.37369e-08
2.24389e-07
1.60916e-06
2.18061e-07
1.79517e-06
2.37343e-07
1.39536e-07
1.56139e-07
1.56522e-07
1.29306e-07
1.58912e-07
2.32445e-07
2.24391e-07
2.7046e-07
3.46483e-06
1.2096e-06
3.34095e-06
1.27186e-06
254.922
270.234
274.389
249.129
255.796
230.366
271.863
145.083
221.099
180.734
175.528
53.582
51.6149
62.9695
63.2266
54.9337
52.2976
53.1371
51.5516
55.6096
47.986
42.0803
30.0257
30.5659
26.5301
25.6626
23.6898
21.5962
18.1465
17.3576
15.68
14.2628
15.4645
7.06538
7.10752
6.93714
5.63136
5.71857
5.67582
5.80572
6.9462
6.91656
5.28408
5.5563
5.01623
0.777008
0.60519
2.38207
1.85231
0.0753659
0.0158366
0.0689542
0.0707191
0.0822676
0.0605296
0.0850397
0.450783
0.40346
0.539033
0.375504
0.0148147
0.0125332
0.0104266
0.00755609
0.00555567
0.00091748
0.00121883
2.22708e-05
1.98874e-05
2.22708e-05
2.20731e-05
1.00523e-05
3.33422e-06
8.49145e-06
2.80923e-06
1.64398e-05
3.85953e-07
5.28749e-07
4.13973e-07
2.9059e-07
1.0785e-06
1.23069e-06
1.22131e-06
6.77208e-06
6.2036e-06
5.27461e-06
4.9387e-06
3.2692e-06
6.01188e-06
4.9199e-06
5.76038e-06
5.78621e-06
5.71619e-06
5.95044e-06
5.66484e-06
5.88618e-06
5.59539e-06
3.12065e-06
3.05723e-06
2.85665e-06
2.75962e-06
2.62951e-06
2.49468e-06
1.5154e-06
1.29718e-07
1.25153e-07
1.18372e-07
1.23827e-07
1.27491e-07
1.26564e-07
1.19636e-07
1.2277e-07
1.61064e-07
1.73108e-07
1.46739e-07
1.60117e-07
1.55948e-07
1.60973e-07
1.53483e-07
1.58058e-07
2.24507e-07
2.70141e-07
2.84349e-07
2.67674e-07
2.81439e-06
4.1007e-06
4.77704e-06
3.40659e-06
222.675
221.551
101.553
97.6102
71.9147
74.246
215.395
215.705
67.1961
234.339
50.1959
62.1428
241.556
240.532
39.0324
49.5197
46.7824
58.7342
56.8136
48.9343
40.0992
51.0199
37.3627
18.1445
16.5571
30.495
25.8374
34.9782
29.4022
26.0741
21.5273
20.0644
15.0175
5.31937
12.6421
5.42678
5.90108
6.15455
6.21645
6.6848
6.72087
6.25503
5.77297
6.16847
4.63929
6.09802
6.17149
5.89502
2.01817
1.73375
1.52393
1.11643
0.898131
0.793288
0.622927
0.449253
0.339915
0.155436
0.172039
0.130407
0.0316404
0.07708
0.0123138
0.00514948
0.00393547
0.00179466
0.000874307
0.001186
0.00105273
1.77931e-05
2.1757e-05
3.61961e-06
1.04614e-06
1.40577e-06
1.65494e-06
2.09297e-06
1.21143e-06
9.90445e-07
7.72385e-07
2.88399e-07
8.55376e-07
1.05196e-06
1.02473e-06
1.03572e-06
8.68905e-07
2.98123e-06
4.09494e-07
5.06351e-06
5.00085e-06
5.53546e-06
5.40846e-06
4.63419e-06
4.63684e-06
3.40922e-06
2.69697e-06
8.65459e-07
1.48381e-06
1.63582e-06
1.46814e-06
1.88713e-07
1.66744e-07
1.96987e-06
1.76888e-06
1.2657e-06
1.43341e-07
1.40198e-07
8.75795e-08
1.78682e-07
9.4639e-08
1.01993e-07
9.4624e-08
1.00817e-07
1.0989e-07
1.26418e-07
1.23721e-07
1.36422e-07
1.37028e-07
1.25997e-07
2.70933e-07
1.09964e-07
2.99174e-07
3.991e-07
4.64594e-07
7.22202e-07
8.2682e-07
2.06402e-06
5.99737e-06
6.78217e-06
262.02
261.72
222.604
228.445
56.4551
71.7705
72.7952
58.8574
61.5428
59.1832
58.4464
54.5491
63.3653
43.4914
212.09
42.9849
45.0586
57.8858
201.398
66.0323
72.405
99.3169
59.3579
93.2923
29.7136
49.6686
42.635
53.0626
29.5974
29.6531
14.4987
5.59491
11.6907
5.1413
5.48661
6.42302
6.23035
6.09987
7.15263
7.08119
4.9913
3.31319
5.94074
2.83198
7.12174
5.34468
7.14428
5.16872
2.61655
5.84792
1.72073
5.02376
1.05988
0.33461
0.179164
0.203974
0.166582
0.163639
0.135372
0.0469118
0.111306
0.122654
0.015691
0.115866
0.00903974
0.0752251
5.82875e-05
2.01814e-05
5.21719e-06
6.64818e-06
1.77355e-06
1.39042e-05
3.13806e-07
2.97613e-07
3.02635e-07
1.21192e-06
2.8144e-07
1.38945e-06
1.39638e-06
9.53645e-07
1.22406e-06
9.57213e-07
1.0368e-06
9.80002e-07
7.33975e-07
6.44256e-07
6.28721e-07
1.97624e-07
1.1108e-06
1.38213e-06
2.08985e-06
1.29706e-06
1.51408e-06
1.23267e-07
2.97626e-10
3.75638e-10
5.44413e-10
1.75099e-06
1.57543e-06
1.91828e-06
1.82729e-06
3.23293e-07
4.68078e-08
1.07302e-07
8.73533e-08
5.21688e-08
5.21066e-08
5.70045e-08
5.79765e-08
1.02312e-07
1.00174e-07
8.20918e-08
8.64867e-08
9.73075e-08
1.12235e-07
1.09665e-07
2.41375e-07
2.54663e-07
2.71063e-07
2.68101e-07
3.51993e-07
3.47444e-07
4.06178e-07
6.37337e-07
7.71403e-07
9.09442e-07
1.09624e-06
6.80378e-06
286.441
286.097
263.958
265.003
227.874
227.903
157.273
161.26
50.8197
62.1666
60.8182
65.0156
64.781
57.6
57.2535
50.8701
60.4732
82.3824
73.3632
68.0426
88.8717
217.687
231.998
232.16
272.565
271.282
204.535
202.1
2.30713
1.51798
26.4382
21.1075
11.1658
8.751
10.8059
12.5
10.9427
11.6779
10.2455
10.2099
9.17279
7.38614
6.35224
5.05294
5.57507
6.55305
3.30331
6.88273
5.69015
7.90998
4.3457
8.39387
1.32613
0.602199
0.449731
0.0756447
0.182821
0.187213
0.130944
0.0673278
0.142062
0.0243246
0.118143
0.0397908
3.99135e-05
3.81569e-05
4.88751e-06
1.24124e-06
5.97144e-07
3.77486e-06
1.00402e-05
1.30632e-05
8.70423e-06
1.32332e-06
1.35947e-06
1.17631e-06
3.23886e-07
2.98884e-07
6.42129e-07
1.04315e-06
9.77488e-07
1.24124e-06
1.12189e-06
1.15134e-06
6.07751e-07
9.56798e-07
9.27126e-07
8.19395e-07
2.7889e-08
3.73571e-08
2.68182e-08
2.38141e-08
1.02216e-08
6.78907e-09
7.42377e-09
4.87549e-09
4.25336e-10
6.17976e-10
9.42288e-09
6.91285e-09
1.87262e-08
1.18124e-07
9.23296e-08
1.24542e-07
1.10167e-07
2.04215e-08
1.60888e-08
1.31461e-08
1.38914e-08
7.60625e-08
9.60961e-08
5.6971e-08
7.53693e-08
5.8857e-08
1.93249e-07
1.76064e-07
1.87014e-07
2.27433e-07
1.75821e-06
3.23657e-07
2.74314e-06
4.18237e-07
3.87771e-06
6.12818e-07
4.91039e-06
3.96264e-06
4.45636e-06
5.00858e-06
304.348
303.63
292.263
291.928
284.483
284.326
274.216
274.958
259.504
261.067
187.867
193.514
55.5266
53.8238
54.2691
70.7893
78.8707
84.5011
68.8571
68.3847
172.814
163.068
271.594
272.248
324.532
325.469
310.16
310.578
206.349
35.9362
58.7116
48.3432
26.7439
18.605
15.2133
16.1195
10.5115
14.7403
11.6148
9.82939
9.05333
9.40504
6.39322
8.599
6.78051
8.2267
7.17413
9.59132
11.0052
11.0163
9.4047
13.8065
0.113005
0
0.0351839
0.0366647
0.0932915
0.00903338
0.0145701
0.0020137
0.00766032
0.00767476
0.0110863
0
6.23324e-05
5.39752e-05
8.23096e-06
3.49794e-06
2.97633e-06
3.46291e-06
8.18887e-06
1.27091e-05
9.08448e-06
1.39667e-05
1.46137e-05
7.02937e-06
1.18221e-06
6.64503e-07
9.83382e-07
1.00141e-06
8.96239e-07
9.9225e-07
6.84159e-07
1.06099e-06
4.09055e-07
4.29898e-07
5.97546e-07
8.19607e-07
3.57183e-08
1.27522e-08
9.31246e-09
8.69265e-09
3.79288e-09
7.46655e-09
5.98817e-09
5.94451e-09
0
0
9.5526e-10
3.94355e-10
5.89404e-10
1.43304e-07
1.4405e-07
2.94968e-08
6.44387e-08
1.8798e-08
1.2388e-08
1.09458e-08
7.31607e-09
1.14569e-08
3.90699e-09
7.3213e-08
1.79328e-07
1.4009e-07
6.75606e-07
1.52045e-06
1.54743e-06
1.62254e-06
1.12388e-06
2.03767e-06
1.00618e-06
4.51168e-06
5.61747e-06
3.37151e-06
3.87898e-06
5.32642e-06
5.33104e-06
5.54863e-06
325.741
326.491
319.826
320.023
302.072
302.444
297.702
297.952
311.643
311.715
304.5
304.548
271.678
271.422
202.289
238.78
258.923
192.888
255.561
251.444
235.884
233.885
265.042
264.721
265.67
339.522
312.599
347.82
316.444
281.125
284.476
85.1978
67.6361
237.183
167.505
174.963
20.9711
17.603
9.10115
10.344
9.58744
25.1184
16.5289