# vtk DataFile Version 3.0
vtk output
ASCII
DATASET POLYDATA
POINTS 24578 float
-151.53 81.83 75.23
-146.76 79.98 77.9
-147.26 82.51 76.57
-151.22 79.35 76.36
-146.3 77.32 78.47
-150.76 76.75 77.01
-146.01 74.82 79.56
-150.4 74.19 77.98
-145.43 72.07 79.86
-149.95 71.56 78.66
-145.02 69.6 80.58
-149.55 69.11 79.46
-144.64 67.21 81.53
-149.14 66.64 80.2
-144.27 64.77 82.34
-148.68 64.12 80.8
-144.06 62.18 83.1
-148.26 61.63 81.51
-143.83 59.57 83.96
-148.2 59.14 82.73
-143.54 56.98 84.63
-148.02 56.58 83.6
-143.3 54.28 84.95
-147.52 53.77 83.62
-142.71 51.53 84.98
-147.03 50.98 83.68
-142.34 49.05 85.71
-146.66 48.52 84.06
-142.24 46.57 86.6
-146.26 46.05 84.34
-145.97 43.63 84.94
-141.82 44.09 87.11
-141.56 41.44 87.04
-145.67 41.21 85.5
-140.98 38.76 87.5
-145.29 38.66 85.7
-140.75 36.16 87.85
-144.89 36.1 85.85
-144.62 33.53 86.3
-140.46 33.57 88.45
-140.13 30.94 88.56
-144.22 30.94 86.41
-143.81 28.2 86.49
-139.84 28.2 88.9
-143.44 25.45 86.68
-139.6 25.51 89.44
-143.18 22.67 87.12
-139.22 22.78 89.44
-142.9 19.88 87.51
-138.79 20.04 89.71
-142.6 17.15 87.83
-138.39 17.32 89.75
-137.91 14.61 89.73
-142.25 14.42 88.03
-141.99 11.68 88.46
-137.6 11.89 89.94
-141.61 8.95 88.57
-137.22 9.16 90.05
-141.13 6.27 88.48
-136.86 6.45 90.3
-140.68 3.58 88.47
-136.37 3.76 90.16
-140.25 0.89 88.51
-135.88 1.07 90.03
-139.71 -1.79 88.26
-135.64 -1.76 90.02
-135.64 -4.55 89.75
-140 -4.44 88.09
-135.69 -7.09 89
-140.34 -7.12 88.03
-135.79 -9.62 88.23
-140.37 -9.69 87.25
-135.84 -12.19 87.54
-140.43 -12.27 86.54
-135.99 -14.75 87
-140.5 -14.79 85.8
-136.21 -17.35 86.64
-140.62 -17.33 85.19
-136.42 -19.93 86.21
-140.85 -19.94 84.82
-136.49 -22.42 85.34
-140.79 -22.34 83.7
-136.45 -24.91 84.43
-140.78 -24.79 82.73
-136.55 -27.44 83.74
-140.84 -27.3 81.99
-136.57 -29.97 82.98
-140.97 -29.86 81.42
-136.73 -32.54 82.43
-141.02 -32.36 80.63
-136.76 -35.12 81.64
-141.09 -34.97 79.94
-141.32 -37.69 79.69
-136.83 -37.72 80.96
-141.45 -40.33 79.13
-136.9 -40.34 80.32
-137.11 -43 79.41
-141.48 -42.91 78.35
-141.57 -45.38 77.61
-137.04 -45.54 78.64
-141.59 -47.8 76.7
-137.03 -47.91 77.56
-141.86 -50.43 76.49
-137.15 -50.39 76.9
-141.9 -52.84 75.63
-137.27 -52.84 76.11
-141.91 -55.11 74.4
-137.53 -55.19 75.26
-137.48 -57.49 74.21
-141.9 -57.35 73.07
-142.03 -59.74 72.14
-137.7 -59.92 73.43
-142.25 -62.22 71.44
-137.97 -62.48 72.92
-142.57 -64.67 70.67
-138.15 -65.14 72.4
-142.87 -67.1 69.86
-138.34 -67.41 71.12
-143.16 -69.56 69.09
-138.58 -69.8 70.17
-143.42 -71.97 68.22
-138.72 -72 68.84
-143.42 -74.03 66.78
-138.71 -74.17 67.59
-143.52 -76.26 65.69
-138.9 -76.5 66.65
-143.64 -78.59 64.8
-139.03 -78.91 65.88
-143.64 -80.66 63.43
-139.36 -81.09 64.3
-142.41 80.53 78.87
-142.88 83.09 77.59
-141.83 77.87 79.86
-141.49 75.33 80.8
-140.97 72.61 81.19
-140.47 70.13 81.77
-140.01 67.69 82.47
-139.94 65.21 83.59
-139.84 62.72 84.64
-139.44 60.04 85.13
-139.12 57.42 85.86
-138.88 54.8 86.42
-138.56 52.14 86.78
-138.19 49.56 87.25
-137.83 46.99 87.76
-137.58 44.31 88.01
-137.31 41.63 88.23
-137.03 38.95 89.21
-136.57 36.22 89.77
-136.22 33.57 90.06
-135.88 30.91 90.36
-135.74 28.24 91.1
-135.47 25.56 91.56
-134.94 22.88 91.41
-134.47 20.19 91.43
-134.08 17.49 91.57
-133.61 14.8 91.52
-133.09 12.1 91.2
-132.71 9.37 91.23
-132.3 6.67 91.32
-131.94 3.96 91.53
-131.76 1.11 91.67
-131.5 -1.71 91.62
-131.31 -4.41 90.89
-131.1 -7.09 90.13
-131.35 -9.7 89.79
-131.55 -12.29 89.33
-131.63 -14.81 88.62
-131.74 -17.34 87.96
-131.85 -19.85 87.19
-132.06 -22.42 86.66
-132.19 -25.02 86.17
-132.25 -27.57 85.48
-132.26 -30.09 84.65
-132.44 -32.72 84.26
-132.56 -35.36 83.72
-132.63 -37.97 83.04
-132.75 -40.58 81.94
-132.83 -43.16 80.72
-132.77 -45.71 79.94
-132.75 -48.3 79.25
-132.77 -50.64 78.12
-132.8 -52.99 77
-132.95 -55.32 76.2
-133.13 -57.69 75.53
-133.33 -60.11 74.69
-133.5 -62.48 73.72
-133.64 -65.09 73
-133.72 -67.59 72.04
-133.86 -69.81 70.74
-134.01 -72.03 69.43
-134.18 -74.44 68.63
-134.35 -76.86 67.84
-134.77 -79.33 66.76
-135.07 -81.54 65.2
-138.04 81.11 79.93
-138.51 83.66 78.64
-137.48 78.45 80.95
-136.81 75.7 81.58
-136.53 73.2 82.68
-136.2 70.85 83.66
-136.01 68.35 84.53
-135.78 65.76 85.17
-135.49 63.19 85.82
-135.19 60.56 86.38
-134.98 57.99 87.45
-134.76 55.37 88.25
-134.53 52.77 88.88
-134 50.11 89.1
-133.65 47.3 89.03
-133.3 44.56 89.42
-133.29 41.92 90.17
-132.89 39.2 91
-132.5 36.43 91.58
-132.05 33.68 92.21
-131.7 30.98 92.36
-131.44 28.31 92.66
-131.04 25.67 93.02
-130.62 23.02 93.01
-130.15 20.36 93.11
-129.82 17.66 93.35
-129.27 14.97 93.05
-128.74 12.27 92.73
-128.4 9.55 92.87
-127.96 6.85 92.86
-127.84 4 93.22
-127.59 1.17 93.17
-127.27 -1.64 92.97
-127.25 -4.36 92.57
-127.15 -7.08 92.07
-127.17 -9.83 91.83
-127.29 -12.38 91.16
-127.29 -14.86 90.23
-127.44 -17.42 89.6
-127.57 -19.97 88.96
-127.76 -22.53 88.35
-127.82 -25.1 87.72
-127.85 -27.64 86.95
-127.95 -30.27 86.46
-128.2 -32.95 86.24
-128.25 -35.54 85.49
-128.5 -38.26 84.8
-128.59 -40.83 83.55
-128.62 -43.36 82.3
-128.5 -45.86 81.36
-128.57 -48.51 80.64
-128.51 -50.96 79.6
-128.63 -53.39 78.68
-128.82 -55.89 78.24
-129.15 -58.39 77.85
-129.06 -60.46 76.29
-128.99 -62.4 74.44
-128.98 -64.79 73.19
-129.01 -67.15 71.96
-128.97 -69.58 70.84
-129.28 -72.05 69.98
-129.48 -74.55 69.36
-130.01 -77.21 68.65
-130.42 -79.71 67.63
-130.79 -82.03 66.21
-133.82 81.84 81.46
-134.36 84.47 80.38
-133.19 79.09 82.22
-132.49 76.28 82.7
-131.95 73.65 83.71
-131.93 71.29 85
-131.87 68.9 86.17
-131.5 66.27 86.57
-131.13 63.64 86.94
-130.87 61.02 87.58
-130.68 58.45 88.47
-130.46 55.86 89.34
-130.18 53.24 90.02
-129.88 50.44 90.31
-129.64 47.69 90.79
-129.42 44.94 91.36
-129.23 42.2 92.03
-128.71 39.37 92.41
-128.45 36.65 93.48
-128.03 33.86 94.03
-127.47 31.03 94.24
-127.19 28.41 94.71
-126.88 25.78 95.12
-126.32 23.16 94.88
-125.8 20.53 94.74
-125.36 17.84 94.64
-124.86 15.16 94.43
-124.49 12.44 94.52
-124.2 9.71 94.8
-123.95 6.88 94.78
-123.68 4.05 94.73
-123.4 1.23 94.62
-123.18 -1.6 94.69
-123.37 -4.41 94.84
-123.31 -7.12 94.32
-123.16 -9.79 93.63
-122.95 -12.42 92.76
-123.09 -14.99 92.12
-123.27 -17.57 91.56
-123.4 -20.13 90.9
-123.5 -22.66 90.14
-123.53 -25.22 89.42
-123.57 -27.78 88.7
-123.68 -30.42 88.22
-123.74 -33.02 87.62
-123.94 -35.69 86.77
-124.14 -38.36 85.91
-124.27 -40.96 84.88
-124.51 -43.67 84.17
-124.44 -46.18 83.04
-124.36 -48.68 81.9
-124.32 -51.14 80.87
-124.34 -53.66 80.01
-124.65 -56.22 79.72
-124.85 -58.64 79.12
-124.76 -60.62 77.46
-124.57 -62.46 75.52
-124.49 -64.69 73.94
-124.51 -67.1 72.74
-124.57 -69.65 71.8
-124.65 -72.26 70.99
-125.14 -74.86 70.13
-125.57 -77.36 69.04
-126.01 -79.84 67.96
-126.39 -82.16 66.58
-129.58 82.52 82.46
-130.23 85.32 82
-128.9 79.77 83.09
-128.4 77.11 83.84
-127.98 74.41 84.96
-127.56 71.77 85.9
-127.33 69.24 86.57
-127.15 66.76 87.43
-126.86 64.14 88.01
-126.52 61.49 88.81
-126.36 58.96 89.84
-126.14 56.38 90.8
-125.97 53.53 91.15
-125.51 50.64 91.5
-125.42 47.93 92.31
-125.22 45.19 93.14
-125.05 42.45 93.81
-124.64 39.66 94.38
-124.31 36.88 95.2
-123.77 34.05 95.42
-123.26 31.23 95.69
-122.78 28.52 96.11
-122.44 25.87 96.38
-121.98 23.27 96.26
-121.42 20.65 96.06
-121.04 17.96 96.08
-120.68 15.29 96.36
-120.38 12.57 96.56
-120.17 9.75 96.72
-119.91 6.93 96.66
-119.55 4.12 96.37
-119.27 1.3 96.28
-119.07 -1.54 96.32
-119.25 -4.36 96.51
-119.22 -7.1 96.08
-119.04 -9.77 95.31
-119 -12.5 94.8
-118.91 -15.21 94.19
-119.08 -17.79 93.59
-119.2 -20.38 92.98
-119.3 -22.91 92.18
-119.31 -25.47 91.43
-119.31 -28 90.63
-119.33 -30.55 89.87
-119.45 -33.15 88.84
-119.6 -35.8 87.91
-119.83 -38.5 87.17
-120.05 -41.2 86.43
-120.26 -43.87 85.57
-120.32 -46.42 84.63
-120.24 -48.94 83.59
-120.24 -51.46 82.7
-120.29 -53.99 81.83
-120.1 -56.26 80.6
-120.22 -58.48 79.45
-120.33 -60.66 78.2
-120.24 -62.81 76.84
-120.26 -65.2 75.6
-120.18 -67.48 74.2
-120.23 -70.02 73.25
-120.52 -72.67 72.16
-120.81 -75.19 70.96
-121.18 -77.58 69.65
-121.52 -79.9 68.24
-121.92 -82.27 66.97
-125.25 83.17 83.41
-125.88 85.88 82.84
-124.6 80.45 83.94
-124.22 77.72 84.75
-123.94 75.09 85.93
-123.46 72.43 86.81
-122.93 69.71 87.46
-122.73 67.14 88.15
-122.59 64.64 89.06
-122.25 62 89.9
-121.95 59.4 90.9
-121.96 56.7 91.92
-121.73 53.8 92.2
-121.47 50.99 93.04
-121.27 48.22 94.07
-121.07 45.45 94.8
-120.88 42.69 95.58
-120.53 39.9 96.26
-120.06 37.06 96.59
-119.52 34.23 96.77
-119.19 31.45 97.53
-118.64 28.71 97.7
-118.07 25.97 97.81
-117.65 23.36 97.86
-117.2 20.75 97.82
-116.76 18.09 97.81
-116.45 15.42 98.16
-116.25 12.62 98.27
-115.94 9.82 98.09
-115.72 7.01 98.16
-115.43 4.19 98.08
-115.24 1.34 98.13
-115.02 -1.5 98.11
-115.03 -4.27 97.86
-115.05 -7.04 97.62
-115.01 -9.78 97.12
-114.91 -12.5 96.46
-114.83 -15.21 95.87
-114.79 -17.94 95.36
-114.95 -20.55 94.79
-115.09 -23.14 94.17
-115.09 -25.69 93.41
-115.09 -28.25 92.66
-115.19 -30.82 91.55
-115.34 -33.43 90.58
-115.56 -36.16 89.86
-115.65 -38.76 88.81
-115.73 -41.32 87.6
-115.89 -43.96 86.62
-115.94 -46.5 85.75
-115.97 -49.02 84.82
-116.06 -51.62 84.1
-116.16 -54.22 83.41
-116 -56.46 81.98
-115.78 -58.59 80.34
-115.73 -60.7 78.9
-115.82 -63.01 77.89
-115.91 -65.56 77.02
-115.85 -67.86 75.66
-116.07 -70.39 74.35
-116.45 -73.24 73.66
-116.73 -75.78 72.45
-116.87 -78.01 70.66
-117.13 -80.1 68.85
-117.46 -82.37 67.36
-120.93 83.58 83.84
-121.35 86.18 83.25
-120.43 80.92 84.76
-120.24 78.29 85.68
-119.85 75.73 86.84
-119.39 73.08 87.68
-118.97 70.39 88.56
-118.52 67.71 89.38
-118.27 65.1 89.93
-117.89 62.43 90.71
-117.77 59.68 91.68
-117.62 56.89 92.64
-117.53 54.11 93.38
-117.25 51.28 94.27
-116.99 48.44 95.07
-116.61 45.56 95.63
-116.37 42.76 96.18
-116.01 39.98 96.85
-115.62 37.17 97.41
-115.23 34.39 98.02
-114.97 31.62 98.96
-114.53 28.91 99.33
-113.9 26.15 99.26
-113.4 23.47 99.53
-113.04 20.85 99.72
-112.61 18.2 99.71
-112.34 15.45 99.77
-112.11 12.66 99.75
-111.7 9.9 99.43
-111.54 7.08 99.65
-111.31 4.26 99.65
-111.1 1.42 99.6
-110.91 -1.42 99.76
-110.84 -4.17 99.3
-110.76 -6.92 98.71
-110.8 -9.71 98.47
-110.76 -12.46 97.96
-110.67 -15.19 97.39
-110.65 -17.93 96.92
-110.56 -20.62 96.27
-110.66 -23.19 95.59
[...]
CELL_DATA 49152
SCALARS Temperature float 1
LOOKUP_TABLE default
3.0067
2.7963
12.5242
1.7604
3.14124
2.54399
15.4781
15.44
15.1951
15.217
13.9706
14.698
12.9834
1.6869
1.60252
1.97678
2.30051
7.44836
19.3512
21.0096
20.7282
225.029
12.8836
12.3172
37.7203
36.0141
49.509
44.4691
51.2967
42.3558
249.982
76.4149
39.6109
199.54
27.7552
224.579
53.2493
51.8772
229.842
236.91
241.042
193.797
231.511
137.016
186.629
254.374
173.862
213.447
185.078
237.723
250.593
51.3382
60.9402
165.801
204.621
204.63
246.017
186.674
244.45
258.796
231.456
252.855
268.45
231.561
252.698
218.784
298.017
178.82
295.403
296.383
288.999
290.268
273.426
294.965
251.008
283.754
261.817
252.877
305.841
326.167
312.093
316.081
292.603
298.233
300.375
280.261
277.12
302.407
301.315
292.011
238.623
288.965
275.971
284.591
301.464
297.02
295.304
298.734
309.884
321.017
224.183
284.131
302.656
296.364
329.547
303.593
321.635
337.992
311.134
298.116
290.586
270.859
294.022
273.813
297.775
331.989
294.195
309.637
303.255
335.371
344.796
334.611
323.771
311.665
309.075
298.943
343.041
344.703
2.20325
2.37914
13.1603
14.2346
2.484
3.34586
2.69851
3.40569
2.06226
1.94854
1.42924
2.07381
2.11562
14.4388
7.85598
2.50636
14.5525
16.3461
18.0272
17.6617
3.00514
4.74502
17.2742
24.7696
28.4954
33.0435
26.851
35.9941
21.5339
23.2272
4.89931
20.0753
4.95845
5.74141
27.794
31.5627
38.3375
147.452
209.102
31.0898
31.4373
49.7756
50.217
41.6022
272.919
242.682
198.472
237.885
211.066
233.463
250.324
246.048
279.62
140.161
211.31
186.252
69.4075
183.406
237.774
162.203
248.219
191.576
227.409
233.645
299.833
243.562
298.255
295.377
246.889
298.022
265.954
293.803
295.245
276.974
289.401
251.93
297.356
259.225
270.854
305.679
270.188
312.513
293.519
292.651
305.53
299.964
259.491
278.303
277.704
302.306
292.706
292.991
317.032
288.032
324.369
302.103
301.1
301.358
323.224
295.952
291.467
325.756
300.03
323.905
303.446
302.223
322.175
291.646
297.903
302.841
269.74
312.134
268.579
287.709
330.959
309.918
309.469
333.339
335.306
333.969
333.706
301.256
311.762
300.108
299.454
313.071
344.686
343.516
1.80554
1.90924
11.835
12.2313
16.4835
15.8841
14.7906
2.63844
1.38919
2.53775
2.4768
2.43633
2.59433
2.32549
3.15661
11.6677
21.0224
20.8827
11.6701
3.32333
3.3383
15.2581
23.6699
29.7883
30.5902
28.7477
18.6647
21.4075
4.52804
4.52777
5.00877
4.1414
5.19856
28.0851
26.0846
28.1737
19.332
33.924
33.1989
27.3308
39.4258
34.1178
32.841
35.6756
230.437
259.687
220.407
236.598
209.312
183.303
279.357
242.109
275.062
274.728
224.182
203.767
219.662
234.646
179.027
73.2597
194.072
229.899
230.546
250.251
263.922
300.678
280.38
305.831
252.217
252.283
290.954
267.373
313.235
294.496
285.093
289.549
286.852
298.897
282.463
273.916
288.083
271.628
299.587
292.135
271.673
305.933
260.506
235.056
298.311
277.352
284.076
291.628
325.707
316.677
327.711
324.286
303.286
314.59
293.763
292.588
320.234
326.489
310.216
326.395
304.713
270.577
293.449
258.009
352.526
304.935
363.989
313.918
290.561
325.888
306.379
323.846
330.877
317.491
332.58
301.407
298.806
282.671
298.168
281.542
313.187
308.917
343.611
334.514
2.33142
2.18645
11.1062
7.95151
16.5677
16.5201
12.7712
4.86947
5.10276
3.05152
4.02987
2.39792
14.1973
14.5139
19.1861
20.0514
21.1723
21.3986
17.3489
19.6772
22.9788
22.6506
24.9908
24.7342
28.1529
26.6975
26.5177
10.4552
21.6587
20.5106
25.246
24.2322
24.7644
7.65236
7.3916
30.7272
29.2704
25.0064
215.047
219.839
153.414
44.0504
170.512
125.503
282.343
244.417
265.296
221.358
249.895
122.361
256.56
270.256
203.856
280.51
211.806
177.238
247.665
238.281
76.5485
231.48
230.316
239.144
252.816
214.817
116.733
273.749
285.553
285.797
301.614
250.127
311.992
289.482
286.023
313.431
278.498
286.327
289.38
287.959
298.466
282.474
296.678
288.139
295.994
300.549
272.117
273.77
233.078
282.98
297.705
295.395
298.364
282.712
311.615
325.097
285.736
327.981
325.175
316.431
325.86
292.252
318.602
319.831
309.797
306.201
266.038
242.075
254.784
282.723
357.09
351.466
368.746
363.245
348.875
330.088
329.03
326.734
322.417
309.659
302.27
299.23
284.277
295.673
281.807
313.282
309.085
313.051
334.456
332.735
13.0605
8.65991
15.1068
15.2471
15.304
16.8219
4.22298
5.17808
8.44166
4.66412
18.6131
17.8961
21.306
22.0836
21.7141
21.8238
19.9106
20.4999
15.6006
14.4265
13.9647
12.1391
22.9262
26.0057
29.6152
29.3572
24.5526
18.7366
20.2413
20.2018
20.8728
20.4293
12.6709
23.6473
30.0724
23.7131
18.5273
18.7799
22.8044
17.417
23.4401
25.5931
27.2124
34.0184
243.854
266.337
261.929
250.881
217.792
245.224
261.554
187.443
229.005
207.632
186.517
203.628
238
243.008
272.928
235.478
244.315
242.129
212.036
215.555
61.0526
62.4301
270.526
281.173
303.894
297.139
278.663
313.563
291.939
287.584
282.757
278.785
285.348
289.633
301.426
298.641
300.462
297.6
304.595
296.932
300.586
271.471
313.027
282.695
304.553
297.407
288.021
298.331
288.433
312.74
298.726
285.807
309.511
324.323
319.752
325.628
309.809
320.677
308.196
307.579
243.852
332.779
281.252
325.316
331.572
355.516
340.378
369.26
331.165
350.406
342.921
329.808
312.446
312.619
301.977
312.527
295.231
320.558
313.231
328.167
313.094
334.257
332.73
326.442
13.2212
14.7166
14.1278
14.963
13.4729
14.7201
7.70834
10.107
14.6483
14.9296
18.6075
18.9224
19.5186
19.7439
20.2453
21.0134
20.1
20.3497
19.3202
20.194
22.0207
22.0131
29.5203
30.2824
29.9018
22.2432
7.38775
7.6786
13.7061
17.6983
17.1916
18.7839
17.0567
22.2058
24.7868
117.292
197.941
21.853
26.0175
37.3576
148.634
214.758
160.135
216.18
219.2
254.226
242.772
271.889
235.188
241.687
168.542
122.876
193.475
203.457
256.07
169.838
227.756
204.974
236.538
269.528
243.464
220.959
223.436
232.475
250.412
70.8181
241.691
269.075
276.052
304.426
293.79
278.629
286.832
288.886
278.722
281.738
278.894
284.452
284.558
301.229
301.422
300.171
300.493
304.615
318.743
300.007
308.685
313.257
287.62
305.885
315.34
289.315
324.245
288.517
307.414
297.644
303.919
308.309
308.89
317.851
307.565
292.927
305.854
291.186
344.72
336.087
354.922
327.852
345.242
333.257
340.405
319.072
329.517
306.548
339.041
341.887
312.617
327.055
312.584
281.568
320.765
320.904
352.557
328.537
355.368
334.963
326.828
339.125
3.05515
10.2486
2.86833
11.8485
8.32104
11.6718
5.88096
5.91411
13.8251
14.9646
15.3918
17.3443
16.1375
17.0066
19.3445
19.2197
22.092
22.7482
23.1185
23.7227
25.711
27.5703
31.6632
30.4078
29.1595
29.0785
29.3255
36.3916
38.6235
40.6924
43.2127
45.1349
45.9163
47.9598
49.0337
43.6528
42.921
40.7365
43.0665
43.9408
204.355
131.201
229.292
250.417
222.7
187.855
245.649
208.393
247.864
247.448
145.611
216.524
199.545
223.673
270.861
247.141
197.598
143.543
236.395
222.974
210.48
226.918
222.396
187.348
274.536
245.082
283.955
237.485
236.35
274.126
274.89
291.152
283.622
285.502
272.573
277.503
291.267
277.643
289.824
282.867
299.277
298.476
289.563
298.07
302.441
318.484
307.801
308.657
285.622
287.333
325.818
314.532
335.877
323.579
310.513
307.704
305.626
304.874
313.028
309.367
291.772
297.496
288.637
298.667
326.6
343.596
348.228
354.747
334.81
347.198
329.407
320.193
306.373
328.113
337.759
337.809
336.635
326.861
280.277
289.401
320.577
297.724
358.875
352.044
357.813
355.337
339.7
350.296
1.98523
2.18743
1.99102
2.30056
1.99561
2.51683
2.28285
3.79617
2.91306
12.3626
9.62605
14.1518
13.5618
16.2289
18.9394
20.3904
18.7465
20.3953
21.5706
22.6658
25.4226
26.4285
29.2418
30.7674
33.4392
34.7327
39.2147
41.121
45.218
46.0592
49.3196
47.4912
48.8395
49.1408
46.5366
47.9857
46.1372
46.1798
45.1145
48.5844
45.6382
47.8299
207.258
239.018
118.715
53.928
154.533
55.2183
231.022
167.067
218.463
222.978
249.693
224.375
245.862
275.201
168.136
198.225
223.91
239.999
227.318
236.294
172.595
246.326
244.488
269.298
262.277
283.542
255.498
239.912
264.401
275.28
254.276
284.907
240.472
276.168
290.915
294.074
323.725
290.541
305.302
299.733
301.211
289.506
299.926
302.167
308.707
307.037
298.145
284.167
320.219
324.606
321.782
335.718
308.41
310.872
309.426
306.358
316.636
313.564
309.13
298.132
299.976
313.093
312.589
327.931
330.655
349.507
326.124
336.14
344
328.925
340.895
328.775
336.057
337.989
352.604
336.961
291.122
332.148
296.899
332.154
354.743
334.326
356.46
329.205
350.657
327.712
0.932629
1.79418
1.77957
1.83131
2.16727
1.91348
1.86755
1.98993
2.46576
2.23499
2.60821
2.62686
2.61838
3.47794
2.38604
14.9649
10.0287
15.6726
19.4264
21.8952
24.1573
26.2444
28.8212
30.2777
32.6236
34.3937
39.4496
40.0509
44.0132
37.593
41.1255
36.6617
39.5822
43.8669
40.3085
42.5391
45.2797
48.2866
32.8928
34.4494
33.6707
38.1907
239.224
183.62
208.206
264.1
69.1167
202.777
56.3796
58.24
208.68
142.981
245.944
241.388
246.593
237.738
197.731
211.099
241.346
174.814
248.243
265.427
262.689
279.545
259.85
250.9
267.931
265.277
260.105
255.777
265.746
265.944
249.755
255.268
249.998
236.053
254.478
288.956
298.397
324.112
314.39
305.897
329.958
301.518
304.585
300.229
304.125
309.04
306.153
298.301
319.626
320.936
309.717
322.698
322.621
308.107
308.547
308.945
311.618
316.559
301.201
309.49
321.007
314.469
338.918
312.729
329.58
311.685
324.502
326.908
349.9
341.293
335.923
340.597
338.897
335.91
350.778
352.519
334.235
331.955
336.172
339.889
335.535
337.667
328.084
325.975
326.558
330.702
1.51249
0.483356
1.83027
1.96189
1.9859
2.19561
2.06475
1.89118
1.91145
2.3798
2.24913
2.50683
1.43272
2.32213
1.43682
1.74234
2.90802
1.90851
4.49655
5.26414
8.37001
9.05919
11.421
21.8771
17.6213
33.8787
34.1023
36.1695
40.8636
45.6475
49.82
49.7837
52.1798
56.4787
52.5094
55.89
54.3974
57.6358
48.8575
52.4302
50.6318
55.6986
159.212
194.461
275.835
264.418
217.592
216.198
62.0807
63.9456
161.617
216.091
238.543
244.11
231.361
216.249
209.052
203.516
137.456
53.4547
263.49
270.823
279.828
279.725
260.471
259.989
276.546
268.018
272.916
259.109
246.174
266.94
250.25
251.112
282.056
247.031
303.138
245.197
256.358
294.811
269.164
312.975
320.32
329.724
313.963
304.955
304.214
304.59
311.763
306.328
307.397
320.475
313.106
310.268
315.133
322.919
311.158
311.095
314.041
312.892
321.916
301.645
319.386
321.033
332.244
339.875
313.08
327.728
335.153
326.814
333.523
350.25
342.233
336.97
344.296
339.055
342.841
351.024
343.729
332.042
340.084
307.647
337.496
314.713
362.769
327.336
358.968
331.747
1.72638
1.64677
0.577842
1.85582
0.65022
1.99807
0.52819
2.02407
1.0711
1.16282
1.36475
1.59895
1.60101
3.09904
3.47901
4.29054
4.54972
5.14449
5.3586
5.86362
6.99653
6.45279
15.3497
10.4717
21.2729
28.4392
30.6821
37.2015
43.5801
50.6353
63.0628
58.7337
62.8037
71.5577
70.9139
76.1869
65.312
68.1674
64.0127
65.3197
70.8767
66.9727
47.4739
48.5108
41.6931
270.872
209.324
75.095
65.5011
186.298
223.89
250.947
243.866
248.792
210.066
223.351
39.8741
197.609
52.0176
119.244
260.581
251.21
272.182
260.154
240.535
258.396
251.345
277.059
266.756
274.943
266.841
248.668
270.418
248.253
261.676
282.383
293.791
305.725
313.107
261.199
271.067
269.385
274.274
320.667
310.424
313.881
307.046
304.335
312.444
311.872
308.071
307.683
310.61
313.042
310.812
315.198
322.962
310.022
316.807
312.582
323.293
320.989
327.032
318.876
325.109
331.989
326.332
328.075
335.623
335.225
333.171
333.85
340.816
341.956
342.648
344.362
342.879
342.874
340.601
343.814
307.224
335.024
314.002
307.106
346.813
363.472
375.134
359.304
0.478711
0.404381
0.529971
0.550262
0.519357
0.411958
0.413092
0.813885
1.10116
0.987546
0.929506
1.03517
1.36903
2.28272
2.99016
3.46805
3.82618
4.72767
5.11346
4.47768
5.07802
4.21414
4.50261
4.63662
9.05545
9.19442
16.1395
15.2577
20.6387
39.433
32.6223
71.3912
71.126
79.2385
80.0157
78.7525
75.9693
76.6902
70.4764
68.4645
66.1048
54.5394
49.7906
51.9631
37.963
51.6772
53.4443
48.0708
134.131
223.018
198.287
238.807
236.843
218.241
218.086
218.202
191.89
197.833
128.217
192.783
245.769
206.708
258.138
233.191
222.237
244.343
265.846
251.727
251.288
265.97
283.39
262.786
286.752
266.143
248.474
260.649
287.567
292.146
304.811
311.334
285.774
272.153
278.931
275.073
290.293
309.386
295.277
306.804
308.746
312.369
314.71
307.893
315.877
310.347
316.916
310.17
320.455
320.885
318.516
315.429
317.019
322.666
329.526
326.595
326.219
324.988
326.712
326.169
334.126
335.375
331.822
333.063
338.256
340.63
340.987
342.471
345.943
342.434
346.827
340.366
345.853
335.213
307.376
326.13
336.263
346.793
363.061
374.743
0.258939
0.403674
0.451011
0.558662
0.548647
0.798035
1.11541
1.52211
1.3782
1.8568
1.62453
1.87602
2.03947
1.33697
1.18753
1.17806
1.59087
2.27276
2.02988
2.80719
3.85494
2.18104
4.1085
3.57386
6.59003
9.83254
14.553
22.7987
271.927
55.7846
324.926
120.182
104.474
80.0862
87.9789
88.7654
80.6765
67.9738
71.6131
64.1328
49.6465
37.7065
50.891
25.3127
56.0978
35.3427
53.5288
34.0031
202.73
53.1924
197.591
52.8851
216.159
175.657
224.561
205.046
211.952
208.898
215.405
229.816
212.324
205.663
231.564
211.73
239.534
221.816
271.892
263.303
261.323
248.461
270.578
281.483
294.531
286.098
265.022
248.18
300.346
285.381
278.768
304.458
273.02
285.526
279.72
279.707
290.533
291.273
291.141
295.062
307.807
308.474
317.171
314.275
318.372
315.462
321.992
316.419
310.716
320.589
314.65
318.973
329.097
316.649
325.776
328.992
328.351
326.055
326.369
326.596
327.496
334.219
335.953
331.767
336.851
338.143
341.56
340.702
344.223
345.643
348.412
346.539
350.367
345.79
338.531
326.521
346.057
336.433
347.454
363.529
0.128665
0.226177
0.362045
0.531805
0.790219
0.937966
1.38899
1.51297
1.87896
2.11526
2.13352
2.6616
2.65186
2.64737
2.58918
2.60432
2.74004
1.50388
1.31967
0.949431
1.47311
0.832019
0.954657
1.80488
3.30903
4.25462
7.92245
3.83104
247.097
219.867
316.158
315.972
79.2526
99.6023
102.936
92.2451
80.816
73.5755
71.7777
60.0564
53.1419
47.7051
129.134
161.879
34.9973
44.4218
24.655
48.5896
45.1394
61.6504
51.4568
62.5834
217.163
228.681
226.494
263.283
215.257
205.762
237.864
244.598
213.783
234.252
208.542
222.181
261.172
233.866
253.72
270.54
245.341
262.352
267.707
272.71
252.912
297.339
282.949
269.303
316.603
303.057
289.806
282.524
289.512
273.503
283.117
278.971
297.88
289.188
286.457
290.125
316.777
305.976
315.575
316.219
308.392
317.917
306.973
322.138
317.328
311.133
320.984
313.394
320.826
328.433
322.349
326.232
338.777
328.027
325.673
326.251
319.841
327.591
340.688
335.651
338.702
336.474
342.839
341.017
342.191
343.798
342.706
348.304
346.677
350.44
345.355
338.437
349.111
346.173
346.812
347.95
0.127432
0.196594
0.326931
0.0908584
0.160071
0.158373
0.378981
0.223352
0.401521
1.28541
1.78556
2.50712
2.95471
3.00922
2.9551
1.41688
1.12256
1.31016
0.772876
0.768487
0.760105
0.881364
0.650918
2.05875
1.51315
1.86706
2.43261
1.71631
10.6176
200.181
286.462
305.519
101.754
54.4483
94.7486
86.9483
35.2797
69.9019
60.9813
49.7027
51.4273
58.2987
37.0376
56.8428
45.3202
56.2607
50.8581
52.8261
58.787
57.6278
52.7092
51.5131
207.614
221.646
257.495
246.479
195.943
216.914
236.892
239.737
229.978
229.834
220.203
230.132
243.938
261.084
224.657
259.151
261.009
247.207
260.43
268.629
240.901
254.323
298.325
279.656
309.151
315.446
286.959
289.523
293.131
289.474
295.87
283.281
298.646
298.217
294.885
286.952
310.912
317.369
320.202
316.797
316.27
308.798
296.751
307.258
317.435
316.531
323.682
320.436
304.379
321.74
336.297
322.148
342.643
337.952
324.906
325.542
328.491
319.327
329.919
340.38
341.506
338.425
341.275
342.77
342.131
342.233
340.594
342.78
338.669
346.782
352.773
345.051
345.19
349.095
346.597
346.84
0.0853944
0.215692
0.0557997
0.0201608
0.0507727
0.0117068
0.0137807
0.0123746
0.0581532
0.0948889
0.064475
0.103504
0
0
1.03814
1.42889
0.910404
0.93371
0.380139
2.05576
3.38409
3.02527
1.67276
2.98971
3.41291
3.56416
7.63403
6.87568
12.5759
14.8045
15.3542
26.4762
48.5752
63.6872
67.3935
64.3269
23.6892
17.8789
33.7164
57.8836
57.8189
62.7523
56.094
56.3126
54.7517
50.9217
50.6579
45.5042
55.1659
38.7953
46.9306
34.9853
181.332
32.702
225.162
210.941
195.16
210.355
222.532
184.182
218.915
218.153
223.347
223.602
197.347
244.238
204.443
224.365
255.835
259.065
262.479
259.078
258.19
236.639
243.774
298.72
307.611
310.714
319.379
285.872
291.67
291.729
297.106
294.666
291.936
298.716
263.097
296.614
303.653
313.193
337.594
321.116
317.609
317.199
323.299
296.787
313.494
316.626
320
323.523
323.398
303.106
327.347
334.728
329.587
342.947
326.941
325.488
335.825
328.559
336.036
330.106
334.76
341.485
340.958
341.425
345.718
342.035
344.059
340.304
339.856
338.129
347.778
352.169
348.836
344.68
345.537
346.49
0.0290161
0.0520481
0.0564705
0.0434205
0.627491
0.668425
0.723246
1.03274
0.978763
1.12704
1.26988
1.11708
1.58267
1.13551
1.32083
1.04187
0.225362
0.705762
0.84219
1.15192
3.5322
2.9901
4.12785
2.63544
6.45323
4.73552
7.22098
6.32512
7.94272
9.77082
9.25446
13.3535
19.0035
38.6816
34.2991
39.1607
44.276
33.4242
51.7538
59.0036
58.3912
56.2264
52.3302
46.8522
47.0489
44.3241
42.6139
43.2932
41.0636
40.9052
40.0942
34.0544
23.2818
190.084
204.274
202.83
208.082
169.388
176.986
145.95
217.146
190.194
228.031
226.195
233.561
196.646
246.58
192.422
223.781
250.625
250.626
258.057
253.089
254.239
238.183
241.337
287.207
304.857
321.326
316.335
291.232
290.557
286.469
296.735
290.778
291.798
257.633
262.29
317.201
300.524
335.69
334.887
301.292
316.387
320.428
322.247
321.708
313.557
318.659
319.959
326.004
322.786
329.841
328.111
322.709
330.206
334.173
325.845
337.352
334.779
335.095
335.508
330.213
334.938
341.174
340.811
344.055
345.625
349.159
343.901
345.451
339.554
339.301
348.097
349.21
348.813
352.982
345.335
0.104958
0.0456339
0.0303314
0.0716483
0.109615
0.05776
0.300352
0.355424
0.32221
0.287652
0.356294
0.348225
0.727041
0.341976
0.987609
0.317679
0.132598
0.336875
1.20968
0.750272
6.96507
3.29426
6.47375
4.62626
4.37834
4.53191
3.25794
3.83634
3.61146
4.16804
5.78056
6.74872
23.8436
33.4818
43.2004
45.0439
50.4543
50.6733
53.6466
48.3627
51.1464
46.746
43.137
49.0957
44.3465
44.4683
43.529
32.7535
39.1589
8.3198
27.4936
20.2619
187.525
92.9364
209.367
160.411
182.535
160.483
163.705
183
186.89
187.411
224.15
222.763
236.44
231.992
257.817
246.533
260.879
224.262
248.877
248.917
238.134
252.105
278.4
231.542
263.54
284.921
285.121
321.512
291.688
292.05
298.588
286.336
298.673
289.301
256.428
255.224
314.121
315.769
324.57
336.499
306.492
301.72
323.795
319.935
313.041
321.46
323.698
318.635
324.742
325.965
329.473
330.047
325.456
322.887
322.994
334.53
343.634
337.915
338.591
335.49
333.353
330.429
340.636
341.128
343.787
344.039
346.992
349.152
345.424
345.766
344.372
339.736
351.419
348.975
355.303
352.57
0.178642
0.166978
0.0487422
0.0535263
0.0520996
0.0544948
0.260916
0.261857
0.294758
0.288917
0.303223
0.252356
0.275178
0.289887
0.761461
1.16141
1.00741
1.33305
1.79643
1.77535
3.20838
6.31331
2.02582
3.60079
1.80203
2.84049
2.78795
3.37963
4.28166
5.12547
6.46418
6.52662
25.997
31.8215
38.5787
36.8916
42.4013
35.8699
38.9077
40.5991
40.8769
43.8931
43.6618
43.8267
39.737
45.3366
36.2134
9.66587
11.366
7.94815
6.40843
6.98368
8.10974
30.9544
22.6555
40.2332
172.377
203.46
187.086
212.323
183.441
199.444
217.504
212.388
231.136
234.631
245.007
258.133
255.757
262.507
254.679
253.424
260.914
241.272
267.449
280.639
274.307
268.717
285.462
287.988
296.173
290.007
301.759
296.582
300.73
297.726
271.037
254.822
289.985
314.933
321.059
325.56
316.235
305.673
322.242
323.502
318.797
312.337
315.715
323.021
327.183
324.279
329.375
328.912
319.722
325.2
328.693
322.431
344.175
342.656
332.322
338.259
337.378
332.907
340.287
340.375
343.123
343.591
345.645
346.857
345.241
345.156
345.191
343.999
353.456
351.174
355.109
355.197
0.114233
0.181415
0.171155
0.18538
0.185517
0.194148
0.183122
0.194364
0.23378
0.222519
0.234234
0.194655
0.208663
0.156933
0.296342
0.320911
0.432308
0.410312
0.570365
1.06771
0.710264
1.42803
1.08269
1.35128
2.03349
2.25123
3.24857
4.04894
5.34104
6.04565
7.89385
21.7686
29.1026
28.6387
33.2919
30.3512
34.1203
25.9365
33.1077
33.7599
35.9715
38.3654
37.597
38.3655
38.0061
10.332
6.26396
7.04103
7.88092
6.77429
6.57606
2.37455
27.0257
41.1737
39.5313
170.06
196.925
212.649
208.992
177.85
205.615
217.462
213.622
223.202
233.153
230.121
226.456
245.754
248.478
255.813
259.339
253.719
270.622
258.888
263.542